PSF

      10 !NTITLE
 REMARKS original generated structure x-plor psf file
 REMARKS segment WTU1 { first ; last ; auto none  }
 REMARKS segment WTU2 { first ; last ; auto none  }
 REMARKS segment WTU3 { first ; last ; auto none  }
 REMARKS segment WTU4 { first ; last ; auto none  }
 REMARKS segment WTD1 { first ; last ; auto none  }
 REMARKS segment WTD2 { first ; last ; auto none  }
 REMARKS segment WTD3 { first ; last ; auto none  }
 REMARKS segment WTD4 { first ; last ; auto none  }
 REMARKS segment O1 { first ; last ; auto none  }

   28235 !NATOM
       1 WTU1 2    TIP3 OH2  OT    -0.834000       15.9994           0
       2 WTU1 2    TIP3 H1   HT     0.417000        1.0079           0
       3 WTU1 2    TIP3 H2   HT     0.417000        1.0079           0
       4 WTU1 3    TIP3 OH2  OT    -0.834000       15.9994           0
       5 WTU1 3    TIP3 H1   HT     0.417000        1.0079           0
       6 WTU1 3    TIP3 H2   HT     0.417000        1.0079           0
       7 WTU1 4    TIP3 OH2  OT    -0.834000       15.9994           0
       8 WTU1 4    TIP3 H1   HT     0.417000        1.0079           0
       9 WTU1 4    TIP3 H2   HT     0.417000        1.0079           0
      10 WTU1 9    TIP3 OH2  OT    -0.834000       15.9994           0
      11 WTU1 9    TIP3 H1   HT     0.417000        1.0079           0
      12 WTU1 9    TIP3 H2   HT     0.417000        1.0079           0
      13 WTU1 11   TIP3 OH2  OT    -0.834000       15.9994           0
      14 WTU1 11   TIP3 H1   HT     0.417000        1.0079           0
      15 WTU1 11   TIP3 H2   HT     0.417000        1.0079           0
      16 WTU1 21   TIP3 OH2  OT    -0.834000       15.9994           0
      17 WTU1 21   TIP3 H1   HT     0.417000        1.0079           0
      18 WTU1 21   TIP3 H2   HT     0.417000        1.0079           0
      19 WTU1 22   TIP3 OH2  OT    -0.834000       15.9994           0
      20 WTU1 22   TIP3 H1   HT     0.417000        1.0079           0
      21 WTU1 22   TIP3 H2   HT     0.417000        1.0079           0
      22 WTU1 23   TIP3 OH2  OT    -0.834000       15.9994           0
      23 WTU1 23   TIP3 H1   HT     0.417000        1.0079           0
      24 WTU1 23   TIP3 H2   HT     0.417000        1.0079           0
      25 WTU1 25   TIP3 OH2  OT    -0.834000       15.9994           0
      26 WTU1 25   TIP3 H1   HT     0.417000        1.0079           0
      27 WTU1 25   TIP3 H2   HT     0.417000        1.0079           0
      28 WTU1 27   TIP3 OH2  OT    -0.834000       15.9994           0
      29 WTU1 27   TIP3 H1   HT     0.417000        1.0079           0
      30 WTU1 27   TIP3 H2   HT     0.417000        1.0079           0
      31 WTU1 31   TIP3 OH2  OT    -0.834000       15.9994           0
      32 WTU1 31   TIP3 H1   HT     0.417000        1.0079           0
      33 WTU1 31   TIP3 H2   HT     0.417000        1.0079           0
      34 WTU1 40   TIP3 OH2  OT    -0.834000       15.9994           0
      35 WTU1 40   TIP3 H1   HT     0.417000        1.0079           0
      36 WTU1 40   TIP3 H2   HT     0.417000        1.0079           0
      37 WTU1 43   TIP3 OH2  OT    -0.834000       15.9994           0
      38 WTU1 43   TIP3 H1   HT     0.417000        1.0079           0
      39 WTU1 43   TIP3 H2   HT     0.417000        1.0079           0
      40 WTU1 44   TIP3 OH2  OT    -0.834000       15.9994           0
      41 WTU1 44   TIP3 H1   HT     0.417000        1.0079           0
      42 WTU1 44   TIP3 H2   HT     0.417000        1.0079           0
      43 WTU1 47   TIP3 OH2  OT    -0.834000       15.9994           0
      44 WTU1 47   TIP3 H1   HT     0.417000        1.0079           0
      45 WTU1 47   TIP3 H2   HT     0.417000        1.0079           0
      46 WTU1 48   TIP3 OH2  OT    -0.834000       15.9994           0
      47 WTU1 48   TIP3 H1   HT     0.417000        1.0079           0
      48 WTU1 48   TIP3 H2   HT     0.417000        1.0079           0
      49 WTU1 50   TIP3 OH2  OT    -0.834000       15.9994           0
      50 WTU1 50   TIP3 H1   HT     0.417000        1.0079           0
      51 WTU1 50   TIP3 H2   HT     0.417000        1.0079           0
      52 WTU1 64   TIP3 OH2  OT    -0.834000       15.9994           0
      53 WTU1 64   TIP3 H1   HT     0.417000        1.0079           0
      54 WTU1 64   TIP3 H2   HT     0.417000        1.0079           0
      55 WTU1 65   TIP3 OH2  OT    -0.834000       15.9994           0
      56 WTU1 65   TIP3 H1   HT     0.417000        1.0079           0
      57 WTU1 65   TIP3 H2   HT     0.417000        1.0079           0
      58 WTU1 66   TIP3 OH2  OT    -0.834000       15.9994           0
      59 WTU1 66   TIP3 H1   HT     0.417000        1.0079           0
      60 WTU1 66   TIP3 H2   HT     0.417000        1.0079           0
      61 WTU1 69   TIP3 OH2  OT    -0.834000       15.9994           0
      62 WTU1 69   TIP3 H1   HT     0.417000        1.0079           0
      63 WTU1 69   TIP3 H2   HT     0.417000        1.0079           0
      64 WTU1 83   TIP3 OH2  OT    -0.834000       15.9994           0
      65 WTU1 83   TIP3 H1   HT     0.417000        1.0079           0
      66 WTU1 83   TIP3 H2   HT     0.417000        1.0079           0
      67 WTU1 85   TIP3 OH2  OT    -0.834000       15.9994           0
      68 WTU1 85   TIP3 H1   HT     0.417000        1.0079           0
      69 WTU1 85   TIP3 H2   HT     0.417000        1.0079           0
      70 WTU1 86   TIP3 OH2  OT    -0.834000       15.9994           0
      71 WTU1 86   TIP3 H1   HT     0.417000        1.0079           0
      72 WTU1 86   TIP3 H2   HT     0.417000        1.0079           0
      73 WTU1 87   TIP3 OH2  OT    -0.834000       15.9994           0
      74 WTU1 87   TIP3 H1   HT     0.417000        1.0079           0
      75 WTU1 87   TIP3 H2   HT     0.417000        1.0079           0
      76 WTU1 88   TIP3 OH2  OT    -0.834000       15.9994           0
      77 WTU1 88   TIP3 H1   HT     0.417000        1.0079           0
      78 WTU1 88   TIP3 H2   HT     0.417000        1.0079           0
      79 WTU1 90   TIP3 OH2  OT    -0.834000       15.9994           0
      80 WTU1 90   TIP3 H1   HT     0.417000        1.0079           0
      81 WTU1 90   TIP3 H2   HT     0.417000        1.0079           0
      82 WTU1 107  TIP3 OH2  OT    -0.834000       15.9994           0
      83 WTU1 107  TIP3 H1   HT     0.417000        1.0079           0
      84 WTU1 107  TIP3 H2   HT     0.417000        1.0079           0
      85 WTU1 108  TIP3 OH2  OT    -0.834000       15.9994           0
      86 WTU1 108  TIP3 H1   HT     0.417000        1.0079           0
      87 WTU1 108  TIP3 H2   HT     0.417000        1.0079           0
      88 WTU1 109  TIP3 OH2  OT    -0.834000       15.9994           0
      89 WTU1 109  TIP3 H1   HT     0.417000        1.0079           0
      90 WTU1 109  TIP3 H2   HT     0.417000        1.0079           0
      91 WTU1 111  TIP3 OH2  OT    -0.834000       15.9994           0
      92 WTU1 111  TIP3 H1   HT     0.417000        1.0079           0
      93 WTU1 111  TIP3 H2   HT     0.417000        1.0079           0
      94 WTU1 112  TIP3 OH2  OT    -0.834000       15.9994           0
      95 WTU1 112  TIP3 H1   HT     0.417000        1.0079           0
      96 WTU1 112  TIP3 H2   HT     0.417000        1.0079           0
      97 WTU1 125  TIP3 OH2  OT    -0.834000       15.9994           0
      98 WTU1 125  TIP3 H1   HT     0.417000        1.0079           0
      99 WTU1 125  TIP3 H2   HT     0.417000        1.0079           0
     100 WTU1 130  TIP3 OH2  OT    -0.834000       15.9994           0
     101 WTU1 130  TIP3 H1   HT     0.417000        1.0079           0
     102 WTU1 130  TIP3 H2   HT     0.417000        1.0079           0
     103 WTU1 132  TIP3 OH2  OT    -0.834000       15.9994           0
     104 WTU1 132  TIP3 H1   HT     0.417000        1.0079           0
     105 WTU1 132  TIP3 H2   HT     0.417000        1.0079           0
     106 WTU1 144  TIP3 OH2  OT    -0.834000       15.9994           0
     107 WTU1 144  TIP3 H1   HT     0.417000        1.0079           0
     108 WTU1 144  TIP3 H2   HT     0.417000        1.0079           0
     109 WTU1 145  TIP3 OH2  OT    -0.834000       15.9994           0
     110 WTU1 145  TIP3 H1   HT     0.417000        1.0079           0
     111 WTU1 145  TIP3 H2   HT     0.417000        1.0079           0
     112 WTU1 146  TIP3 OH2  OT    -0.834000       15.9994           0
     113 WTU1 146  TIP3 H1   HT     0.417000        1.0079           0
     114 WTU1 146  TIP3 H2   HT     0.417000        1.0079           0
     115 WTU1 149  TIP3 OH2  OT    -0.834000       15.9994           0
     116 WTU1 149  TIP3 H1   HT     0.417000        1.0079           0
     117 WTU1 149  TIP3 H2   HT     0.417000        1.0079           0
     118 WTU1 150  TIP3 OH2  OT    -0.834000       15.9994           0
     119 WTU1 150  TIP3 H1   HT     0.417000        1.0079           0
     120 WTU1 150  TIP3 H2   HT     0.417000        1.0079           0
     121 WTU1 152  TIP3 OH2  OT    -0.834000       15.9994           0
     122 WTU1 152  TIP3 H1   HT     0.417000        1.0079           0
     123 WTU1 152  TIP3 H2   HT     0.417000        1.0079           0
     124 WTU1 154  TIP3 OH2  OT    -0.834000       15.9994           0
     125 WTU1 154  TIP3 H1   HT     0.417000        1.0079           0
     126 WTU1 154  TIP3 H2   HT     0.417000        1.0079           0
     127 WTU1 167  TIP3 OH2  OT    -0.834000       15.9994           0
     128 WTU1 167  TIP3 H1   HT     0.417000        1.0079           0
     129 WTU1 167  TIP3 H2   HT     0.417000        1.0079           0
     130 WTU1 174  TIP3 OH2  OT    -0.834000       15.9994           0
     131 WTU1 174  TIP3 H1   HT     0.417000        1.0079           0
     132 WTU1 174  TIP3 H2   HT     0.417000        1.0079           0
     133 WTU1 190  TIP3 OH2  OT    -0.834000       15.9994           0
     134 WTU1 190  TIP3 H1   HT     0.417000        1.0079           0
     135 WTU1 190  TIP3 H2   HT     0.417000        1.0079           0
     136 WTU1 191  TIP3 OH2  OT    -0.834000       15.9994           0
     137 WTU1 191  TIP3 H1   HT     0.417000        1.0079           0
     138 WTU1 191  TIP3 H2   HT     0.417000        1.0079           0
     139 WTU1 192  TIP3 OH2  OT    -0.834000       15.9994           0
     140 WTU1 192  TIP3 H1   HT     0.417000        1.0079           0
     141 WTU1 192  TIP3 H2   HT     0.417000        1.0079           0
     142 WTU1 195  TIP3 OH2  OT    -0.834000       15.9994           0
     143 WTU1 195  TIP3 H1   HT     0.417000        1.0079           0
     144 WTU1 195  TIP3 H2   HT     0.417000        1.0079           0
     145 WTU1 196  TIP3 OH2  OT    -0.834000       15.9994           0
     146 WTU1 196  TIP3 H1   HT     0.417000        1.0079           0
     147 WTU1 196  TIP3 H2   HT     0.417000        1.0079           0
     148 WTU1 217  TIP3 OH2  OT    -0.834000       15.9994           0
     149 WTU1 217  TIP3 H1   HT     0.417000        1.0079           0
     150 WTU1 217  TIP3 H2   HT     0.417000        1.0079           0
     151 WTU1 233  TIP3 OH2  OT    -0.834000       15.9994           0
     152 WTU1 233  TIP3 H1   HT     0.417000        1.0079           0
     153 WTU1 233  TIP3 H2   HT     0.417000        1.0079           0
     154 WTU1 237  TIP3 OH2  OT    -0.834000       15.9994           0
     155 WTU1 237  TIP3 H1   HT     0.417000        1.0079           0
     156 WTU1 237  TIP3 H2   HT     0.417000        1.0079           0
     157 WTU1 252  TIP3 OH2  OT    -0.834000       15.9994           0
     158 WTU1 252  TIP3 H1   HT     0.417000        1.0079           0
     159 WTU1 252  TIP3 H2   HT     0.417000        1.0079           0
     160 WTU1 253  TIP3 OH2  OT    -0.834000       15.9994           0
     161 WTU1 253  TIP3 H1   HT     0.417000        1.0079           0
     162 WTU1 253  TIP3 H2   HT     0.417000        1.0079           0
     163 WTU1 255  TIP3 OH2  OT    -0.834000       15.9994           0
     164 WTU1 255  TIP3 H1   HT     0.417000        1.0079           0
     165 WTU1 255  TIP3 H2   HT     0.417000        1.0079           0
     166 WTU1 256  TIP3 OH2  OT    -0.834000       15.9994           0
     167 WTU1 256  TIP3 H1   HT     0.417000        1.0079           0
     168 WTU1 256  TIP3 H2   HT     0.417000        1.0079           0
     169 WTU1 257  TIP3 OH2  OT    -0.834000       15.9994           0
     170 WTU1 257  TIP3 H1   HT     0.417000        1.0079           0
     171 WTU1 257  TIP3 H2   HT     0.417000        1.0079           0
     172 WTU1 258  TIP3 OH2  OT    -0.834000       15.9994           0
     173 WTU1 258  TIP3 H1   HT     0.417000        1.0079           0
     174 WTU1 258  TIP3 H2   HT     0.417000        1.0079           0
     175 WTU1 278  TIP3 OH2  OT    -0.834000       15.9994           0
     176 WTU1 278  TIP3 H1   HT     0.417000        1.0079           0
     177 WTU1 278  TIP3 H2   HT     0.417000        1.0079           0
     178 WTU1 280  TIP3 OH2  OT    -0.834000       15.9994           0
     179 WTU1 280  TIP3 H1   HT     0.417000        1.0079           0
     180 WTU1 280  TIP3 H2   HT     0.417000        1.0079           0
     181 WTU1 296  TIP3 OH2  OT    -0.834000       15.9994           0
     182 WTU1 296  TIP3 H1   HT     0.417000        1.0079           0
     183 WTU1 296  TIP3 H2   HT     0.417000        1.0079           0
     184 WTU1 297  TIP3 OH2  OT    -0.834000       15.9994           0
     185 WTU1 297  TIP3 H1   HT     0.417000        1.0079           0
     186 WTU1 297  TIP3 H2   HT     0.417000        1.0079           0
     187 WTU1 299  TIP3 OH2  OT    -0.834000       15.9994           0
     188 WTU1 299  TIP3 H1   HT     0.417000        1.0079           0
     189 WTU1 299  TIP3 H2   HT     0.417000        1.0079           0
     190 WTU1 300  TIP3 OH2  OT    -0.834000       15.9994           0
     191 WTU1 300  TIP3 H1   HT     0.417000        1.0079           0
     192 WTU1 300  TIP3 H2   HT     0.417000        1.0079           0
     193 WTU1 316  TIP3 OH2  OT    -0.834000       15.9994           0
     194 WTU1 316  TIP3 H1   HT     0.417000        1.0079           0
     195 WTU1 316  TIP3 H2   HT     0.417000        1.0079           0
     196 WTU1 319  TIP3 OH2  OT    -0.834000       15.9994           0
     197 WTU1 319  TIP3 H1   HT     0.417000        1.0079           0
     198 WTU1 319  TIP3 H2   HT     0.417000        1.0079           0
     199 WTU1 321  TIP3 OH2  OT    -0.834000       15.9994           0
     200 WTU1 321  TIP3 H1   HT     0.417000        1.0079           0
     201 WTU1 321  TIP3 H2   HT     0.417000        1.0079           0
     202 WTU1 334  TIP3 OH2  OT    -0.834000       15.9994           0
     203 WTU1 334  TIP3 H1   HT     0.417000        1.0079           0
     204 WTU1 334  TIP3 H2   HT     0.417000        1.0079           0
     205 WTU1 335  TIP3 OH2  OT    -0.834000       15.9994           0
     206 WTU1 335  TIP3 H1   HT     0.417000        1.0079           0
     207 WTU1 335  TIP3 H2   HT     0.417000        1.0079           0
     208 WTU1 337  TIP3 OH2  OT    -0.834000       15.9994           0
     209 WTU1 337  TIP3 H1   HT     0.417000        1.0079           0
     210 WTU1 337  TIP3 H2   HT     0.417000        1.0079           0
     211 WTU1 338  TIP3 OH2  OT    -0.834000       15.9994           0
     212 WTU1 338  TIP3 H1   HT     0.417000        1.0079           0
     213 WTU1 338  TIP3 H2   HT     0.417000        1.0079           0
     214 WTU1 341  TIP3 OH2  OT    -0.834000       15.9994           0
     215 WTU1 341  TIP3 H1   HT     0.417000        1.0079           0
     216 WTU1 341  TIP3 H2   HT     0.417000        1.0079           0
     217 WTU1 344  TIP3 OH2  OT    -0.834000       15.9994           0
     218 WTU1 344  TIP3 H1   HT     0.417000        1.0079           0
     219 WTU1 344  TIP3 H2   HT     0.417000        1.0079           0
     220 WTU1 361  TIP3 OH2  OT    -0.834000       15.9994           0
     221 WTU1 361  TIP3 H1   HT     0.417000        1.0079           0
     222 WTU1 361  TIP3 H2   HT     0.417000        1.0079           0
     223 WTU1 364  TIP3 OH2  OT    -0.834000       15.9994           0
     224 WTU1 364  TIP3 H1   HT     0.417000        1.0079           0
     225 WTU1 364  TIP3 H2   HT     0.417000        1.0079           0
     226 WTU1 375  TIP3 OH2  OT    -0.834000       15.9994           0
     227 WTU1 375  TIP3 H1   HT     0.417000        1.0079           0
     228 WTU1 375  TIP3 H2   HT     0.417000        1.0079           0
     229 WTU1 378  TIP3 OH2  OT    -0.834000       15.9994           0
     230 WTU1 378  TIP3 H1   HT     0.417000        1.0079           0
     231 WTU1 378  TIP3 H2   HT     0.417000        1.0079           0
     232 WTU1 381  TIP3 OH2  OT    -0.834000       15.9994           0
     233 WTU1 381  TIP3 H1   HT     0.417000        1.0079           0
     234 WTU1 381  TIP3 H2   HT     0.417000        1.0079           0
     235 WTU1 383  TIP3 OH2  OT    -0.834000       15.9994           0
     236 WTU1 383  TIP3 H1   HT     0.417000        1.0079           0
     237 WTU1 383  TIP3 H2   HT     0.417000        1.0079           0
     238 WTU1 384  TIP3 OH2  OT    -0.834000       15.9994           0
     239 WTU1 384  TIP3 H1   HT     0.417000        1.0079           0
     240 WTU1 384  TIP3 H2   HT     0.417000        1.0079           0
     241 WTU1 401  TIP3 OH2  OT    -0.834000       15.9994           0
     242 WTU1 401  TIP3 H1   HT     0.417000        1.0079           0
     243 WTU1 401  TIP3 H2   HT     0.417000        1.0079           0
     244 WTU1 403  TIP3 OH2  OT    -0.834000       15.9994           0
     245 WTU1 403  TIP3 H1   HT     0.417000        1.0079           0
     246 WTU1 403  TIP3 H2   HT     0.417000        1.0079           0
     247 WTU1 404  TIP3 OH2  OT    -0.834000       15.9994           0
     248 WTU1 404  TIP3 H1   HT     0.417000        1.0079           0
     249 WTU1 404  TIP3 H2   HT     0.417000        1.0079           0
     250 WTU1 420  TIP3 OH2  OT    -0.834000       15.9994           0
     251 WTU1 420  TIP3 H1   HT     0.417000        1.0079           0
     252 WTU1 420  TIP3 H2   HT     0.417000        1.0079           0
     253 WTU1 424  TIP3 OH2  OT    -0.834000       15.9994           0
     254 WTU1 424  TIP3 H1   HT     0.417000        1.0079           0
     255 WTU1 424  TIP3 H2   HT     0.417000        1.0079           0
     256 WTU1 425  TIP3 OH2  OT    -0.834000       15.9994           0
     257 WTU1 425  TIP3 H1   HT     0.417000        1.0079           0
     258 WTU1 425  TIP3 H2   HT     0.417000        1.0079           0
     259 WTU1 426  TIP3 OH2  OT    -0.834000       15.9994           0
     260 WTU1 426  TIP3 H1   HT     0.417000        1.0079           0
     261 WTU1 426  TIP3 H2   HT     0.417000        1.0079           0
     262 WTU1 427  TIP3 OH2  OT    -0.834000       15.9994           0
     263 WTU1 427  TIP3 H1   HT     0.417000        1.0079           0
     264 WTU1 427  TIP3 H2   HT     0.417000        1.0079           0
     265 WTU1 439  TIP3 OH2  OT    -0.834000       15.9994           0
     266 WTU1 439  TIP3 H1   HT     0.417000        1.0079           0
     267 WTU1 439  TIP3 H2   HT     0.417000        1.0079           0
     268 WTU1 443  TIP3 OH2  OT    -0.834000       15.9994           0
     269 WTU1 443  TIP3 H1   HT     0.417000        1.0079           0
     270 WTU1 443  TIP3 H2   HT     0.417000        1.0079           0
     271 WTU1 444  TIP3 OH2  OT    -0.834000       15.9994           0
     272 WTU1 444  TIP3 H1   HT     0.417000        1.0079           0
     273 WTU1 444  TIP3 H2   HT     0.417000        1.0079           0
     274 WTU1 446  TIP3 OH2  OT    -0.834000       15.9994           0
     275 WTU1 446  TIP3 H1   HT     0.417000        1.0079           0
     276 WTU1 446  TIP3 H2   HT     0.417000        1.0079           0
     277 WTU1 447  TIP3 OH2  OT    -0.834000       15.9994           0
     278 WTU1 447  TIP3 H1   HT     0.417000        1.0079           0
     279 WTU1 447  TIP3 H2   HT     0.417000        1.0079           0
     280 WTU1 460  TIP3 OH2  OT    -0.834000       15.9994           0
     281 WTU1 460  TIP3 H1   HT     0.417000        1.0079           0
     282 WTU1 460  TIP3 H2   HT     0.417000        1.0079           0
     283 WTU1 465  TIP3 OH2  OT    -0.834000       15.9994           0
     284 WTU1 465  TIP3 H1   HT     0.417000        1.0079           0
     285 WTU1 465  TIP3 H2   HT     0.417000        1.0079           0
     286 WTU1 466  TIP3 OH2  OT    -0.834000       15.9994           0
     287 WTU1 466  TIP3 H1   HT     0.417000        1.0079           0
     288 WTU1 466  TIP3 H2   HT     0.417000        1.0079           0
     289 WTU1 467  TIP3 OH2  OT    -0.834000       15.9994           0
     290 WTU1 467  TIP3 H1   HT     0.417000        1.0079           0
     291 WTU1 467  TIP3 H2   HT     0.417000        1.0079           0
     292 WTU1 468  TIP3 OH2  OT    -0.834000       15.9994           0
     293 WTU1 468  TIP3 H1   HT     0.417000        1.0079           0
     294 WTU1 468  TIP3 H2   HT     0.417000        1.0079           0
     295 WTU1 469  TIP3 OH2  OT    -0.834000       15.9994           0
     296 WTU1 469  TIP3 H1   HT     0.417000        1.0079           0
     297 WTU1 469  TIP3 H2   HT     0.417000        1.0079           0
     298 WTU1 472  TIP3 OH2  OT    -0.834000       15.9994           0
     299 WTU1 472  TIP3 H1   HT     0.417000        1.0079           0
     300 WTU1 472  TIP3 H2   HT     0.417000        1.0079           0
     301 WTU1 483  TIP3 OH2  OT    -0.834000       15.9994           0
     302 WTU1 483  TIP3 H1   HT     0.417000        1.0079           0
     303 WTU1 483  TIP3 H2   HT     0.417000        1.0079           0
     304 WTU1 484  TIP3 OH2  OT    -0.834000       15.9994           0
     305 WTU1 484  TIP3 H1   HT     0.417000        1.0079           0
     306 WTU1 484  TIP3 H2   HT     0.417000        1.0079           0
     307 WTU1 485  TIP3 OH2  OT    -0.834000       15.9994           0
     308 WTU1 485  TIP3 H1   HT     0.417000        1.0079           0
     309 WTU1 485  TIP3 H2   HT     0.417000        1.0079           0
     310 WTU1 486  TIP3 OH2  OT    -0.834000       15.9994           0
     311 WTU1 486  TIP3 H1   HT     0.417000        1.0079           0
     312 WTU1 486  TIP3 H2   HT     0.417000        1.0079           0
     313 WTU1 492  TIP3 OH2  OT    -0.834000       15.9994           0
     314 WTU1 492  TIP3 H1   HT     0.417000        1.0079           0
     315 WTU1 492  TIP3 H2   HT     0.417000        1.0079           0
     316 WTU1 503  TIP3 OH2  OT    -0.834000       15.9994           0
     317 WTU1 503  TIP3 H1   HT     0.417000        1.0079           0
     318 WTU1 503  TIP3 H2   HT     0.417000        1.0079           0
     319 WTU1 507  TIP3 OH2  OT    -0.834000       15.9994           0
     320 WTU1 507  TIP3 H1   HT     0.417000        1.0079           0
     321 WTU1 507  TIP3 H2   HT     0.417000        1.0079           0
     322 WTU1 508  TIP3 OH2  OT    -0.834000       15.9994           0
     323 WTU1 508  TIP3 H1   HT     0.417000        1.0079           0
     324 WTU1 508  TIP3 H2   HT     0.417000        1.0079           0
     325 WTU1 512  TIP3 OH2  OT    -0.834000       15.9994           0
     326 WTU1 512  TIP3 H1   HT     0.417000        1.0079           0
     327 WTU1 512  TIP3 H2   HT     0.417000        1.0079           0
     328 WTU1 529  TIP3 OH2  OT    -0.834000       15.9994           0
     329 WTU1 529  TIP3 H1   HT     0.417000        1.0079           0
     330 WTU1 529  TIP3 H2   HT     0.417000        1.0079           0
     331 WTU1 530  TIP3 OH2  OT    -0.834000       15.9994           0
     332 WTU1 530  TIP3 H1   HT     0.417000        1.0079           0
     333 WTU1 530  TIP3 H2   HT     0.417000        1.0079           0
     334 WTU1 543  TIP3 OH2  OT    -0.834000       15.9994           0
     335 WTU1 543  TIP3 H1   HT     0.417000        1.0079           0
     336 WTU1 543  TIP3 H2   HT     0.417000        1.0079           0
     337 WTU1 554  TIP3 OH2  OT    -0.834000       15.9994           0
     338 WTU1 554  TIP3 H1   HT     0.417000        1.0079           0
     339 WTU1 554  TIP3 H2   HT     0.417000        1.0079           0
     340 WTU1 562  TIP3 OH2  OT    -0.834000       15.9994           0
     341 WTU1 562  TIP3 H1   HT     0.417000        1.0079           0
     342 WTU1 562  TIP3 H2   HT     0.417000        1.0079           0
     343 WTU1 568  TIP3 OH2  OT    -0.834000       15.9994           0
     344 WTU1 568  TIP3 H1   HT     0.417000        1.0079           0
     345 WTU1 568  TIP3 H2   HT     0.417000        1.0079           0
     346 WTU1 570  TIP3 OH2  OT    -0.834000       15.9994           0
     347 WTU1 570  TIP3 H1   HT     0.417000        1.0079           0
     348 WTU1 570  TIP3 H2   HT     0.417000        1.0079           0
     349 WTU1 572  TIP3 OH2  OT    -0.834000       15.9994           0
     350 WTU1 572  TIP3 H1   HT     0.417000        1.0079           0
     351 WTU1 572  TIP3 H2   HT     0.417000        1.0079           0
     352 WTU1 575  TIP3 OH2  OT    -0.834000       15.9994           0
     353 WTU1 575  TIP3 H1   HT     0.417000        1.0079           0
     354 WTU1 575  TIP3 H2   HT     0.417000        1.0079           0
     355 WTU1 584  TIP3 OH2  OT    -0.834000       15.9994           0
     356 WTU1 584  TIP3 H1   HT     0.417000        1.0079           0
     357 WTU1 584  TIP3 H2   HT     0.417000        1.0079           0
     358 WTU1 588  TIP3 OH2  OT    -0.834000       15.9994           0
     359 WTU1 588  TIP3 H1   HT     0.417000        1.0079           0
     360 WTU1 588  TIP3 H2   HT     0.417000        1.0079           0
     361 WTU1 591  TIP3 OH2  OT    -0.834000       15.9994           0
     362 WTU1 591  TIP3 H1   HT     0.417000        1.0079           0
     363 WTU1 591  TIP3 H2   HT     0.417000        1.0079           0
     364 WTU1 592  TIP3 OH2  OT    -0.834000       15.9994           0
     365 WTU1 592  TIP3 H1   HT     0.417000        1.0079           0
     366 WTU1 592  TIP3 H2   HT     0.417000        1.0079           0
     367 WTU1 593  TIP3 OH2  OT    -0.834000       15.9994           0
     368 WTU1 593  TIP3 H1   HT     0.417000        1.0079           0
     369 WTU1 593  TIP3 H2   HT     0.417000        1.0079           0
     370 WTU1 594  TIP3 OH2  OT    -0.834000       15.9994           0
     371 WTU1 594  TIP3 H1   HT     0.417000        1.0079           0
     372 WTU1 594  TIP3 H2   HT     0.417000        1.0079           0
     373 WTU1 612  TIP3 OH2  OT    -0.834000       15.9994           0
     374 WTU1 612  TIP3 H1   HT     0.417000        1.0079           0
     375 WTU1 612  TIP3 H2   HT     0.417000        1.0079           0
     376 WTU1 613  TIP3 OH2  OT    -0.834000       15.9994           0
     377 WTU1 613  TIP3 H1   HT     0.417000        1.0079           0
     378 WTU1 613  TIP3 H2   HT     0.417000        1.0079           0
     379 WTU1 632  TIP3 OH2  OT    -0.834000       15.9994           0
     380 WTU1 632  TIP3 H1   HT     0.417000        1.0079           0
     381 WTU1 632  TIP3 H2   HT     0.417000        1.0079           0
     382 WTU1 634  TIP3 OH2  OT    -0.834000       15.9994           0
     383 WTU1 634  TIP3 H1   HT     0.417000        1.0079           0
     384 WTU1 634  TIP3 H2   HT     0.417000        1.0079           0
     385 WTU1 653  TIP3 OH2  OT    -0.834000       15.9994           0
     386 WTU1 653  TIP3 H1   HT     0.417000        1.0079           0
     387 WTU1 653  TIP3 H2   HT     0.417000        1.0079           0
     388 WTU1 654  TIP3 OH2  OT    -0.834000       15.9994           0
     389 WTU1 654  TIP3 H1   HT     0.417000        1.0079           0
     390 WTU1 654  TIP3 H2   HT     0.417000        1.0079           0
     391 WTU1 656  TIP3 OH2  OT    -0.834000       15.9994           0
     392 WTU1 656  TIP3 H1   HT     0.417000        1.0079           0
     393 WTU1 656  TIP3 H2   HT     0.417000        1.0079           0
     394 WTU1 657  TIP3 OH2  OT    -0.834000       15.9994           0
     395 WTU1 657  TIP3 H1   HT     0.417000        1.0079           0
     396 WTU1 657  TIP3 H2   HT     0.417000        1.0079           0
     397 WTU1 672  TIP3 OH2  OT    -0.834000       15.9994           0
     398 WTU1 672  TIP3 H1   HT     0.417000        1.0079           0
     399 WTU1 672  TIP3 H2   HT     0.417000        1.0079           0
     400 WTU1 674  TIP3 OH2  OT    -0.834000       15.9994           0
     401 WTU1 674  TIP3 H1   HT     0.417000        1.0079           0
     402 WTU1 674  TIP3 H2   HT     0.417000        1.0079           0
     403 WTU1 675  TIP3 OH2  OT    -0.834000       15.9994           0
     404 WTU1 675  TIP3 H1   HT     0.417000        1.0079           0
     405 WTU1 675  TIP3 H2   HT     0.417000        1.0079           0
     406 WTU1 676  TIP3 OH2  OT    -0.834000       15.9994           0
     407 WTU1 676  TIP3 H1   HT     0.417000        1.0079           0
     408 WTU1 676  TIP3 H2   HT     0.417000        1.0079           0
     409 WTU1 692  TIP3 OH2  OT    -0.834000       15.9994           0
     410 WTU1 692  TIP3 H1   HT     0.417000        1.0079           0
     411 WTU1 692  TIP3 H2   HT     0.417000        1.0079           0
     412 WTU1 696  TIP3 OH2  OT    -0.834000       15.9994           0
     413 WTU1 696  TIP3 H1   HT     0.417000        1.0079           0
     414 WTU1 696  TIP3 H2   HT     0.417000        1.0079           0
     415 WTU1 697  TIP3 OH2  OT    -0.834000       15.9994           0
     416 WTU1 697  TIP3 H1   HT     0.417000        1.0079           0
     417 WTU1 697  TIP3 H2   HT     0.417000        1.0079           0
     418 WTU1 698  TIP3 OH2  OT    -0.834000       15.9994           0
     419 WTU1 698  TIP3 H1   HT     0.417000        1.0079           0
     420 WTU1 698  TIP3 H2   HT     0.417000        1.0079           0
     421 WTU1 715  TIP3 OH2  OT    -0.834000       15.9994           0
     422 WTU1 715  TIP3 H1   HT     0.417000        1.0079           0
     423 WTU1 715  TIP3 H2   HT     0.417000        1.0079           0
     424 WTU1 716  TIP3 OH2  OT    -0.834000       15.9994           0
     425 WTU1 716  TIP3 H1   HT     0.417000        1.0079           0
     426 WTU1 716  TIP3 H2   HT     0.417000        1.0079           0
     427 WTU1 717  TIP3 OH2  OT    -0.834000       15.9994           0
     428 WTU1 717  TIP3 H1   HT     0.417000        1.0079           0
     429 WTU1 717  TIP3 H2   HT     0.417000        1.0079           0
     430 WTU1 720  TIP3 OH2  OT    -0.834000       15.9994           0
     431 WTU1 720  TIP3 H1   HT     0.417000        1.0079           0
     432 WTU1 720  TIP3 H2   HT     0.417000        1.0079           0
     433 WTU1 735  TIP3 OH2  OT    -0.834000       15.9994           0
     434 WTU1 735  TIP3 H1   HT     0.417000        1.0079           0
     435 WTU1 735  TIP3 H2   HT     0.417000        1.0079           0
     436 WTU1 736  TIP3 OH2  OT    -0.834000       15.9994           0
     437 WTU1 736  TIP3 H1   HT     0.417000        1.0079           0
     438 WTU1 736  TIP3 H2   HT     0.417000        1.0079           0
     439 WTU1 738  TIP3 OH2  OT    -0.834000       15.9994           0
     440 WTU1 738  TIP3 H1   HT     0.417000        1.0079           0
     441 WTU1 738  TIP3 H2   HT     0.417000        1.0079           0
     442 WTU1 740  TIP3 OH2  OT    -0.834000       15.9994           0
     443 WTU1 740  TIP3 H1   HT     0.417000        1.0079           0
     444 WTU1 740  TIP3 H2   HT     0.417000        1.0079           0
     445 WTU1 744  TIP3 OH2  OT    -0.834000       15.9994           0
     446 WTU1 744  TIP3 H1   HT     0.417000        1.0079           0
     447 WTU1 744  TIP3 H2   HT     0.417000        1.0079           0
     448 WTU1 746  TIP3 OH2  OT    -0.834000       15.9994           0
     449 WTU1 746  TIP3 H1   HT     0.417000        1.0079           0
     450 WTU1 746  TIP3 H2   HT     0.417000        1.0079           0
     451 WTU1 760  TIP3 OH2  OT    -0.834000       15.9994           0
     452 WTU1 760  TIP3 H1   HT     0.417000        1.0079           0
     453 WTU1 760  TIP3 H2   HT     0.417000        1.0079           0
     454 WTU1 776  TIP3 OH2  OT    -0.834000       15.9994           0
     455 WTU1 776  TIP3 H1   HT     0.417000        1.0079           0
     456 WTU1 776  TIP3 H2   HT     0.417000        1.0079           0
     457 WTU1 778  TIP3 OH2  OT    -0.834000       15.9994           0
     458 WTU1 778  TIP3 H1   HT     0.417000        1.0079           0
     459 WTU1 778  TIP3 H2   HT     0.417000        1.0079           0
     460 WTU1 781  TIP3 OH2  OT    -0.834000       15.9994           0
     461 WTU1 781  TIP3 H1   HT     0.417000        1.0079           0
     462 WTU1 781  TIP3 H2   HT     0.417000        1.0079           0
     463 WTU1 784  TIP3 OH2  OT    -0.834000       15.9994           0
     464 WTU1 784  TIP3 H1   HT     0.417000        1.0079           0
     465 WTU1 784  TIP3 H2   HT     0.417000        1.0079           0
     466 WTU1 801  TIP3 OH2  OT    -0.834000       15.9994           0
     467 WTU1 801  TIP3 H1   HT     0.417000        1.0079           0
     468 WTU1 801  TIP3 H2   HT     0.417000        1.0079           0
     469 WTU1 802  TIP3 OH2  OT    -0.834000       15.9994           0
     470 WTU1 802  TIP3 H1   HT     0.417000        1.0079           0
     471 WTU1 802  TIP3 H2   HT     0.417000        1.0079           0
     472 WTU1 804  TIP3 OH2  OT    -0.834000       15.9994           0
     473 WTU1 804  TIP3 H1   HT     0.417000        1.0079           0
     474 WTU1 804  TIP3 H2   HT     0.417000        1.0079           0
     475 WTU1 807  TIP3 OH2  OT    -0.834000       15.9994           0
     476 WTU1 807  TIP3 H1   HT     0.417000        1.0079           0
     477 WTU1 807  TIP3 H2   HT     0.417000        1.0079           0
     478 WTU1 817  TIP3 OH2  OT    -0.834000       15.9994           0
     479 WTU1 817  TIP3 H1   HT     0.417000        1.0079           0
     480 WTU1 817  TIP3 H2   HT     0.417000        1.0079           0
     481 WTU1 822  TIP3 OH2  OT    -0.834000       15.9994           0
     482 WTU1 822  TIP3 H1   HT     0.417000        1.0079           0
     483 WTU1 822  TIP3 H2   HT     0.417000        1.0079           0
     484 WTU1 823  TIP3 OH2  OT    -0.834000       15.9994           0
     485 WTU1 823  TIP3 H1   HT     0.417000        1.0079           0
     486 WTU1 823  TIP3 H2   HT     0.417000        1.0079           0
     487 WTU1 824  TIP3 OH2  OT    -0.834000       15.9994           0
     488 WTU1 824  TIP3 H1   HT     0.417000        1.0079           0
     489 WTU1 824  TIP3 H2   HT     0.417000        1.0079           0
     490 WTU1 843  TIP3 OH2  OT    -0.834000       15.9994           0
     491 WTU1 843  TIP3 H1   HT     0.417000        1.0079           0
     492 WTU1 843  TIP3 H2   HT     0.417000        1.0079           0
     493 WTU1 846  TIP3 OH2  OT    -0.834000       15.9994           0
     494 WTU1 846  TIP3 H1   HT     0.417000        1.0079           0
     495 WTU1 846  TIP3 H2   HT     0.417000        1.0079           0
     496 WTU1 862  TIP3 OH2  OT    -0.834000       15.9994           0
     497 WTU1 862  TIP3 H1   HT     0.417000        1.0079           0
     498 WTU1 862  TIP3 H2   HT     0.417000        1.0079           0
     499 WTU1 865  TIP3 OH2  OT    -0.834000       15.9994           0
     500 WTU1 865  TIP3 H1   HT     0.417000        1.0079           0
     501 WTU1 865  TIP3 H2   HT     0.417000        1.0079           0
     502 WTU1 883  TIP3 OH2  OT    -0.834000       15.9994           0
     503 WTU1 883  TIP3 H1   HT     0.417000        1.0079           0
     504 WTU1 883  TIP3 H2   HT     0.417000        1.0079           0
     505 WTU1 885  TIP3 OH2  OT    -0.834000       15.9994           0
     506 WTU1 885  TIP3 H1   HT     0.417000        1.0079           0
     507 WTU1 885  TIP3 H2   HT     0.417000        1.0079           0
     508 WTU1 891  TIP3 OH2  OT    -0.834000       15.9994           0
     509 WTU1 891  TIP3 H1   HT     0.417000        1.0079           0
     510 WTU1 891  TIP3 H2   HT     0.417000        1.0079           0
     511 WTU1 905  TIP3 OH2  OT    -0.834000       15.9994           0
     512 WTU1 905  TIP3 H1   HT     0.417000        1.0079           0
     513 WTU1 905  TIP3 H2   HT     0.417000        1.0079           0
     514 WTU1 906  TIP3 OH2  OT    -0.834000       15.9994           0
     515 WTU1 906  TIP3 H1   HT     0.417000        1.0079           0
     516 WTU1 906  TIP3 H2   HT     0.417000        1.0079           0
     517 WTU1 907  TIP3 OH2  OT    -0.834000       15.9994           0
     518 WTU1 907  TIP3 H1   HT     0.417000        1.0079           0
     519 WTU1 907  TIP3 H2   HT     0.417000        1.0079           0
     520 WTU1 908  TIP3 OH2  OT    -0.834000       15.9994           0
     521 WTU1 908  TIP3 H1   HT     0.417000        1.0079           0
     522 WTU1 908  TIP3 H2   HT     0.417000        1.0079           0
     523 WTU1 924  TIP3 OH2  OT    -0.834000       15.9994           0
     524 WTU1 924  TIP3 H1   HT     0.417000        1.0079           0
     525 WTU1 924  TIP3 H2   HT     0.417000        1.0079           0
     526 WTU1 926  TIP3 OH2  OT    -0.834000       15.9994           0
     527 WTU1 926  TIP3 H1   HT     0.417000        1.0079           0
     528 WTU1 926  TIP3 H2   HT     0.417000        1.0079           0
     529 WTU1 927  TIP3 OH2  OT    -0.834000       15.9994           0
     530 WTU1 927  TIP3 H1   HT     0.417000        1.0079           0
     531 WTU1 927  TIP3 H2   HT     0.417000        1.0079           0
     532 WTU1 942  TIP3 OH2  OT    -0.834000       15.9994           0
     533 WTU1 942  TIP3 H1   HT     0.417000        1.0079           0
     534 WTU1 942  TIP3 H2   HT     0.417000        1.0079           0
     535 WTU1 947  TIP3 OH2  OT    -0.834000       15.9994           0
     536 WTU1 947  TIP3 H1   HT     0.417000        1.0079           0
     537 WTU1 947  TIP3 H2   HT     0.417000        1.0079           0
     538 WTU1 948  TIP3 OH2  OT    -0.834000       15.9994           0
     539 WTU1 948  TIP3 H1   HT     0.417000        1.0079           0
     540 WTU1 948  TIP3 H2   HT     0.417000        1.0079           0
     541 WTU1 952  TIP3 OH2  OT    -0.834000       15.9994           0
     542 WTU1 952  TIP3 H1   HT     0.417000        1.0079           0
     543 WTU1 952  TIP3 H2   HT     0.417000        1.0079           0
     544 WTU1 964  TIP3 OH2  OT    -0.834000       15.9994           0
     545 WTU1 964  TIP3 H1   HT     0.417000        1.0079           0
     546 WTU1 964  TIP3 H2   HT     0.417000        1.0079           0
     547 WTU1 968  TIP3 OH2  OT    -0.834000       15.9994           0
     548 WTU1 968  TIP3 H1   HT     0.417000        1.0079           0
     549 WTU1 968  TIP3 H2   HT     0.417000        1.0079           0
     550 WTU1 969  TIP3 OH2  OT    -0.834000       15.9994           0
     551 WTU1 969  TIP3 H1   HT     0.417000        1.0079           0
     552 WTU1 969  TIP3 H2   HT     0.417000        1.0079           0
     553 WTU1 970  TIP3 OH2  OT    -0.834000       15.9994           0
     554 WTU1 970  TIP3 H1   HT     0.417000        1.0079           0
     555 WTU1 970  TIP3 H2   HT     0.417000        1.0079           0
     556 WTU1 972  TIP3 OH2  OT    -0.834000       15.9994           0
     557 WTU1 972  TIP3 H1   HT     0.417000        1.0079           0
     558 WTU1 972  TIP3 H2   HT     0.417000        1.0079           0
     559 WTU1 985  TIP3 OH2  OT    -0.834000       15.9994           0
     560 WTU1 985  TIP3 H1   HT     0.417000        1.0079           0
     561 WTU1 985  TIP3 H2   HT     0.417000        1.0079           0
     562 WTU1 988  TIP3 OH2  OT    -0.834000       15.9994           0
     563 WTU1 988  TIP3 H1   HT     0.417000        1.0079           0
     564 WTU1 988  TIP3 H2   HT     0.417000        1.0079           0
     565 WTU1 989  TIP3 OH2  OT    -0.834000       15.9994           0
     566 WTU1 989  TIP3 H1   HT     0.417000        1.0079           0
     567 WTU1 989  TIP3 H2   HT     0.417000        1.0079           0
     568 WTU1 990  TIP3 OH2  OT    -0.834000       15.9994           0
     569 WTU1 990  TIP3 H1   HT     0.417000        1.0079           0
     570 WTU1 990  TIP3 H2   HT     0.417000        1.0079           0
     571 WTU1 1007 TIP3 OH2  OT    -0.834000       15.9994           0
     572 WTU1 1007 TIP3 H1   HT     0.417000        1.0079           0
     573 WTU1 1007 TIP3 H2   HT     0.417000        1.0079           0
     574 WTU1 1010 TIP3 OH2  OT    -0.834000       15.9994           0
     575 WTU1 1010 TIP3 H1   HT     0.417000        1.0079           0
     576 WTU1 1010 TIP3 H2   HT     0.417000        1.0079           0
     577 WTU1 1011 TIP3 OH2  OT    -0.834000       15.9994           0
     578 WTU1 1011 TIP3 H1   HT     0.417000        1.0079           0
     579 WTU1 1011 TIP3 H2   HT     0.417000        1.0079           0
     580 WTU1 1018 TIP3 OH2  OT    -0.834000       15.9994           0
     581 WTU1 1018 TIP3 H1   HT     0.417000        1.0079           0
     582 WTU1 1018 TIP3 H2   HT     0.417000        1.0079           0
     583 WTU1 1027 TIP3 OH2  OT    -0.834000       15.9994           0
     584 WTU1 1027 TIP3 H1   HT     0.417000        1.0079           0
     585 WTU1 1027 TIP3 H2   HT     0.417000        1.0079           0
     586 WTU1 1032 TIP3 OH2  OT    -0.834000       15.9994           0
     587 WTU1 1032 TIP3 H1   HT     0.417000        1.0079           0
     588 WTU1 1032 TIP3 H2   HT     0.417000        1.0079           0
     589 WTU1 1033 TIP3 OH2  OT    -0.834000       15.9994           0
     590 WTU1 1033 TIP3 H1   HT     0.417000        1.0079           0
     591 WTU1 1033 TIP3 H2   HT     0.417000        1.0079           0
     592 WTU1 1051 TIP3 OH2  OT    -0.834000       15.9994           0
     593 WTU1 1051 TIP3 H1   HT     0.417000        1.0079           0
     594 WTU1 1051 TIP3 H2   HT     0.417000        1.0079           0
     595 WTU1 1055 TIP3 OH2  OT    -0.834000       15.9994           0
     596 WTU1 1055 TIP3 H1   HT     0.417000        1.0079           0
     597 WTU1 1055 TIP3 H2   HT     0.417000        1.0079           0
     598 WTU1 1058 TIP3 OH2  OT    -0.834000       15.9994           0
     599 WTU1 1058 TIP3 H1   HT     0.417000        1.0079           0
     600 WTU1 1058 TIP3 H2   HT     0.417000        1.0079           0
     601 WTU1 1059 TIP3 OH2  OT    -0.834000       15.9994           0
     602 WTU1 1059 TIP3 H1   HT     0.417000        1.0079           0
     603 WTU1 1059 TIP3 H2   HT     0.417000        1.0079           0
     604 WTU1 1072 TIP3 OH2  OT    -0.834000       15.9994           0
     605 WTU1 1072 TIP3 H1   HT     0.417000        1.0079           0
     606 WTU1 1072 TIP3 H2   HT     0.417000        1.0079           0
     607 WTU1 1076 TIP3 OH2  OT    -0.834000       15.9994           0
     608 WTU1 1076 TIP3 H1   HT     0.417000        1.0079           0
     609 WTU1 1076 TIP3 H2   HT     0.417000        1.0079           0
     610 WTU1 1077 TIP3 OH2  OT    -0.834000       15.9994           0
     611 WTU1 1077 TIP3 H1   HT     0.417000        1.0079           0
     612 WTU1 1077 TIP3 H2   HT     0.417000        1.0079           0
     613 WTU1 1092 TIP3 OH2  OT    -0.834000       15.9994           0
     614 WTU1 1092 TIP3 H1   HT     0.417000        1.0079           0
     615 WTU1 1092 TIP3 H2   HT     0.417000        1.0079           0
     616 WTU1 1096 TIP3 OH2  OT    -0.834000       15.9994           0
     617 WTU1 1096 TIP3 H1   HT     0.417000        1.0079           0
     618 WTU1 1096 TIP3 H2   HT     0.417000        1.0079           0
     619 WTU1 1098 TIP3 OH2  OT    -0.834000       15.9994           0
     620 WTU1 1098 TIP3 H1   HT     0.417000        1.0079           0
     621 WTU1 1098 TIP3 H2   HT     0.417000        1.0079           0
     622 WTU1 1112 TIP3 OH2  OT    -0.834000       15.9994           0
     623 WTU1 1112 TIP3 H1   HT     0.417000        1.0079           0
     624 WTU1 1112 TIP3 H2   HT     0.417000        1.0079           0
     625 WTU1 1113 TIP3 OH2  OT    -0.834000       15.9994           0
     626 WTU1 1113 TIP3 H1   HT     0.417000        1.0079           0
     627 WTU1 1113 TIP3 H2   HT     0.417000        1.0079           0
     628 WTU1 1115 TIP3 OH2  OT    -0.834000       15.9994           0
     629 WTU1 1115 TIP3 H1   HT     0.417000        1.0079           0
     630 WTU1 1115 TIP3 H2   HT     0.417000        1.0079           0
     631 WTU1 1117 TIP3 OH2  OT    -0.834000       15.9994           0
     632 WTU1 1117 TIP3 H1   HT     0.417000        1.0079           0
     633 WTU1 1117 TIP3 H2   HT     0.417000        1.0079           0
     634 WTU1 1119 TIP3 OH2  OT    -0.834000       15.9994           0
     635 WTU1 1119 TIP3 H1   HT     0.417000        1.0079           0
     636 WTU1 1119 TIP3 H2   HT     0.417000        1.0079           0
     637 WTU1 1134 TIP3 OH2  OT    -0.834000       15.9994           0
     638 WTU1 1134 TIP3 H1   HT     0.417000        1.0079           0
     639 WTU1 1134 TIP3 H2   HT     0.417000        1.0079           0
     640 WTU1 1135 TIP3 OH2  OT    -0.834000       15.9994           0
     641 WTU1 1135 TIP3 H1   HT     0.417000        1.0079           0
     642 WTU1 1135 TIP3 H2   HT     0.417000        1.0079           0
     643 WTU1 1140 TIP3 OH2  OT    -0.834000       15.9994           0
     644 WTU1 1140 TIP3 H1   HT     0.417000        1.0079           0
     645 WTU1 1140 TIP3 H2   HT     0.417000        1.0079           0
     646 WTU1 1155 TIP3 OH2  OT    -0.834000       15.9994           0
     647 WTU1 1155 TIP3 H1   HT     0.417000        1.0079           0
     648 WTU1 1155 TIP3 H2   HT     0.417000        1.0079           0
     649 WTU1 1159 TIP3 OH2  OT    -0.834000       15.9994           0
     650 WTU1 1159 TIP3 H1   HT     0.417000        1.0079           0
     651 WTU1 1159 TIP3 H2   HT     0.417000        1.0079           0
     652 WTU1 1162 TIP3 OH2  OT    -0.834000       15.9994           0
     653 WTU1 1162 TIP3 H1   HT     0.417000        1.0079           0
     654 WTU1 1162 TIP3 H2   HT     0.417000        1.0079           0
     655 WTU1 1177 TIP3 OH2  OT    -0.834000       15.9994           0
     656 WTU1 1177 TIP3 H1   HT     0.417000        1.0079           0
     657 WTU1 1177 TIP3 H2   HT     0.417000        1.0079           0
     658 WTU1 1178 TIP3 OH2  OT    -0.834000       15.9994           0
     659 WTU1 1178 TIP3 H1   HT     0.417000        1.0079           0
     660 WTU1 1178 TIP3 H2   HT     0.417000        1.0079           0
     661 WTU1 1179 TIP3 OH2  OT    -0.834000       15.9994           0
     662 WTU1 1179 TIP3 H1   HT     0.417000        1.0079           0
     663 WTU1 1179 TIP3 H2   HT     0.417000        1.0079           0
     664 WTU1 1180 TIP3 OH2  OT    -0.834000       15.9994           0
     665 WTU1 1180 TIP3 H1   HT     0.417000        1.0079           0
     666 WTU1 1180 TIP3 H2   HT     0.417000        1.0079           0
     667 WTU1 1183 TIP3 OH2  OT    -0.834000       15.9994           0
     668 WTU1 1183 TIP3 H1   HT     0.417000        1.0079           0
     669 WTU1 1183 TIP3 H2   HT     0.417000        1.0079           0
     670 WTU1 1185 TIP3 OH2  OT    -0.834000       15.9994           0
     671 WTU1 1185 TIP3 H1   HT     0.417000        1.0079           0
     672 WTU1 1185 TIP3 H2   HT     0.417000        1.0079           0
     673 WTU1 1197 TIP3 OH2  OT    -0.834000       15.9994           0
     674 WTU1 1197 TIP3 H1   HT     0.417000        1.0079           0
     675 WTU1 1197 TIP3 H2   HT     0.417000        1.0079           0
     676 WTU1 1200 TIP3 OH2  OT    -0.834000       15.9994           0
     677 WTU1 1200 TIP3 H1   HT     0.417000        1.0079           0
     678 WTU1 1200 TIP3 H2   HT     0.417000        1.0079           0
     679 WTU1 1201 TIP3 OH2  OT    -0.834000       15.9994           0
     680 WTU1 1201 TIP3 H1   HT     0.417000        1.0079           0
     681 WTU1 1201 TIP3 H2   HT     0.417000        1.0079           0
     682 WTU1 1203 TIP3 OH2  OT    -0.834000       15.9994           0
     683 WTU1 1203 TIP3 H1   HT     0.417000        1.0079           0
     684 WTU1 1203 TIP3 H2   HT     0.417000        1.0079           0
     685 WTU1 1219 TIP3 OH2  OT    -0.834000       15.9994           0
     686 WTU1 1219 TIP3 H1   HT     0.417000        1.0079           0
     687 WTU1 1219 TIP3 H2   HT     0.417000        1.0079           0
     688 WTU1 1220 TIP3 OH2  OT    -0.834000       15.9994           0
     689 WTU1 1220 TIP3 H1   HT     0.417000        1.0079           0
     690 WTU1 1220 TIP3 H2   HT     0.417000        1.0079           0
     691 WTU1 1223 TIP3 OH2  OT    -0.834000       15.9994           0
     692 WTU1 1223 TIP3 H1   HT     0.417000        1.0079           0
     693 WTU1 1223 TIP3 H2   HT     0.417000        1.0079           0
     694 WTU1 1224 TIP3 OH2  OT    -0.834000       15.9994           0
     695 WTU1 1224 TIP3 H1   HT     0.417000        1.0079           0
     696 WTU1 1224 TIP3 H2   HT     0.417000        1.0079           0
     697 WTU1 1227 TIP3 OH2  OT    -0.834000       15.9994           0
     698 WTU1 1227 TIP3 H1   HT     0.417000        1.0079           0
     699 WTU1 1227 TIP3 H2   HT     0.417000        1.0079           0
     700 WTU1 1240 TIP3 OH2  OT    -0.834000       15.9994           0
     701 WTU1 1240 TIP3 H1   HT     0.417000        1.0079           0
     702 WTU1 1240 TIP3 H2   HT     0.417000        1.0079           0
     703 WTU1 1242 TIP3 OH2  OT    -0.834000       15.9994           0
     704 WTU1 1242 TIP3 H1   HT     0.417000        1.0079           0
     705 WTU1 1242 TIP3 H2   HT     0.417000        1.0079           0
     706 WTU1 1243 TIP3 OH2  OT    -0.834000       15.9994           0
     707 WTU1 1243 TIP3 H1   HT     0.417000        1.0079           0
     708 WTU1 1243 TIP3 H2   HT     0.417000        1.0079           0
     709 WTU1 1258 TIP3 OH2  OT    -0.834000       15.9994           0
     710 WTU1 1258 TIP3 H1   HT     0.417000        1.0079           0
     711 WTU1 1258 TIP3 H2   HT     0.417000        1.0079           0
     712 WTU1 1263 TIP3 OH2  OT    -0.834000       15.9994           0
     713 WTU1 1263 TIP3 H1   HT     0.417000        1.0079           0
     714 WTU1 1263 TIP3 H2   HT     0.417000        1.0079           0
     715 WTU1 1265 TIP3 OH2  OT    -0.834000       15.9994           0
     716 WTU1 1265 TIP3 H1   HT     0.417000        1.0079           0
     717 WTU1 1265 TIP3 H2   HT     0.417000        1.0079           0
     718 WTU1 1267 TIP3 OH2  OT    -0.834000       15.9994           0
     719 WTU1 1267 TIP3 H1   HT     0.417000        1.0079           0
     720 WTU1 1267 TIP3 H2   HT     0.417000        1.0079           0
     721 WTU1 1281 TIP3 OH2  OT    -0.834000       15.9994           0
     722 WTU1 1281 TIP3 H1   HT     0.417000        1.0079           0
     723 WTU1 1281 TIP3 H2   HT     0.417000        1.0079           0
     724 WTU1 1283 TIP3 OH2  OT    -0.834000       15.9994           0
     725 WTU1 1283 TIP3 H1   HT     0.417000        1.0079           0
     726 WTU1 1283 TIP3 H2   HT     0.417000        1.0079           0
     727 WTU1 1284 TIP3 OH2  OT    -0.834000       15.9994           0
     728 WTU1 1284 TIP3 H1   HT     0.417000        1.0079           0
     729 WTU1 1284 TIP3 H2   HT     0.417000        1.0079           0
     730 WTU1 1285 TIP3 OH2  OT    -0.834000       15.9994           0
     731 WTU1 1285 TIP3 H1   HT     0.417000        1.0079           0
     732 WTU1 1285 TIP3 H2   HT     0.417000        1.0079           0
     733 WTU1 1301 TIP3 OH2  OT    -0.834000       15.9994           0
     734 WTU1 1301 TIP3 H1   HT     0.417000        1.0079           0
     735 WTU1 1301 TIP3 H2   HT     0.417000        1.0079           0
     736 WTU1 1303 TIP3 OH2  OT    -0.834000       15.9994           0
     737 WTU1 1303 TIP3 H1   HT     0.417000        1.0079           0
     738 WTU1 1303 TIP3 H2   HT     0.417000        1.0079           0
     739 WTU1 1304 TIP3 OH2  OT    -0.834000       15.9994           0
     740 WTU1 1304 TIP3 H1   HT     0.417000        1.0079           0
     741 WTU1 1304 TIP3 H2   HT     0.417000        1.0079           0
     742 WTU1 1305 TIP3 OH2  OT    -0.834000       15.9994           0
     743 WTU1 1305 TIP3 H1   HT     0.417000        1.0079           0
     744 WTU1 1305 TIP3 H2   HT     0.417000        1.0079           0
     745 WTU1 1307 TIP3 OH2  OT    -0.834000       15.9994           0
     746 WTU1 1307 TIP3 H1   HT     0.417000        1.0079           0
     747 WTU1 1307 TIP3 H2   HT     0.417000        1.0079           0
     748 WTU1 1322 TIP3 OH2  OT    -0.834000       15.9994           0
     749 WTU1 1322 TIP3 H1   HT     0.417000        1.0079           0
     750 WTU1 1322 TIP3 H2   HT     0.417000        1.0079           0
     751 WTU1 1324 TIP3 OH2  OT    -0.834000       15.9994           0
     752 WTU1 1324 TIP3 H1   HT     0.417000        1.0079           0
     753 WTU1 1324 TIP3 H2   HT     0.417000        1.0079           0
     754 WTU1 1326 TIP3 OH2  OT    -0.834000       15.9994           0
     755 WTU1 1326 TIP3 H1   HT     0.417000        1.0079           0
     756 WTU1 1326 TIP3 H2   HT     0.417000        1.0079           0
     757 WTU1 1327 TIP3 OH2  OT    -0.834000       15.9994           0
     758 WTU1 1327 TIP3 H1   HT     0.417000        1.0079           0
     759 WTU1 1327 TIP3 H2   HT     0.417000        1.0079           0
     760 WTU1 1328 TIP3 OH2  OT    -0.834000       15.9994           0
     761 WTU1 1328 TIP3 H1   HT     0.417000        1.0079           0
     762 WTU1 1328 TIP3 H2   HT     0.417000        1.0079           0
     763 WTU1 1329 TIP3 OH2  OT    -0.834000       15.9994           0
     764 WTU1 1329 TIP3 H1   HT     0.417000        1.0079           0
     765 WTU1 1329 TIP3 H2   HT     0.417000        1.0079           0
     766 WTU1 1344 TIP3 OH2  OT    -0.834000       15.9994           0
     767 WTU1 1344 TIP3 H1   HT     0.417000        1.0079           0
     768 WTU1 1344 TIP3 H2   HT     0.417000        1.0079           0
     769 WTU1 1345 TIP3 OH2  OT    -0.834000       15.9994           0
     770 WTU1 1345 TIP3 H1   HT     0.417000        1.0079           0
     771 WTU1 1345 TIP3 H2   HT     0.417000        1.0079           0
     772 WTU1 1346 TIP3 OH2  OT    -0.834000       15.9994           0
     773 WTU1 1346 TIP3 H1   HT     0.417000        1.0079           0
     774 WTU1 1346 TIP3 H2   HT     0.417000        1.0079           0
     775 WTU1 1347 TIP3 OH2  OT    -0.834000       15.9994           0
     776 WTU1 1347 TIP3 H1   HT     0.417000        1.0079           0
     777 WTU1 1347 TIP3 H2   HT     0.417000        1.0079           0
     778 WTU1 1349 TIP3 OH2  OT    -0.834000       15.9994           0
     779 WTU1 1349 TIP3 H1   HT     0.417000        1.0079           0
     780 WTU1 1349 TIP3 H2   HT     0.417000        1.0079           0
     781 WTU1 1351 TIP3 OH2  OT    -0.834000       15.9994           0
     782 WTU1 1351 TIP3 H1   HT     0.417000        1.0079           0
     783 WTU1 1351 TIP3 H2   HT     0.417000        1.0079           0
     784 WTU1 1352 TIP3 OH2  OT    -0.834000       15.9994           0
     785 WTU1 1352 TIP3 H1   HT     0.417000        1.0079           0
     786 WTU1 1352 TIP3 H2   HT     0.417000        1.0079           0
     787 WTU1 1367 TIP3 OH2  OT    -0.834000       15.9994           0
     788 WTU1 1367 TIP3 H1   HT     0.417000        1.0079           0
     789 WTU1 1367 TIP3 H2   HT     0.417000        1.0079           0
     790 WTU1 1368 TIP3 OH2  OT    -0.834000       15.9994           0
     791 WTU1 1368 TIP3 H1   HT     0.417000        1.0079           0
     792 WTU1 1368 TIP3 H2   HT     0.417000        1.0079           0
     793 WTU1 1370 TIP3 OH2  OT    -0.834000       15.9994           0
     794 WTU1 1370 TIP3 H1   HT     0.417000        1.0079           0
     795 WTU1 1370 TIP3 H2   HT     0.417000        1.0079           0
     796 WTU1 1371 TIP3 OH2  OT    -0.834000       15.9994           0
     797 WTU1 1371 TIP3 H1   HT     0.417000        1.0079           0
     798 WTU1 1371 TIP3 H2   HT     0.417000        1.0079           0
     799 WTU1 1374 TIP3 OH2  OT    -0.834000       15.9994           0
     800 WTU1 1374 TIP3 H1   HT     0.417000        1.0079           0
     801 WTU1 1374 TIP3 H2   HT     0.417000        1.0079           0
     802 WTU1 1375 TIP3 OH2  OT    -0.834000       15.9994           0
     803 WTU1 1375 TIP3 H1   HT     0.417000        1.0079           0
     804 WTU1 1375 TIP3 H2   HT     0.417000        1.0079           0
     805 WTU1 1387 TIP3 OH2  OT    -0.834000       15.9994           0
     806 WTU1 1387 TIP3 H1   HT     0.417000        1.0079           0
     807 WTU1 1387 TIP3 H2   HT     0.417000        1.0079           0
     808 WTU1 1389 TIP3 OH2  OT    -0.834000       15.9994           0
     809 WTU1 1389 TIP3 H1   HT     0.417000        1.0079           0
     810 WTU1 1389 TIP3 H2   HT     0.417000        1.0079           0
     811 WTU1 1393 TIP3 OH2  OT    -0.834000       15.9994           0
     812 WTU1 1393 TIP3 H1   HT     0.417000        1.0079           0
     813 WTU1 1393 TIP3 H2   HT     0.417000        1.0079           0
     814 WTU1 1407 TIP3 OH2  OT    -0.834000       15.9994           0
     815 WTU1 1407 TIP3 H1   HT     0.417000        1.0079           0
     816 WTU1 1407 TIP3 H2   HT     0.417000        1.0079           0
     817 WTU1 1408 TIP3 OH2  OT    -0.834000       15.9994           0
     818 WTU1 1408 TIP3 H1   HT     0.417000        1.0079           0
     819 WTU1 1408 TIP3 H2   HT     0.417000        1.0079           0
     820 WTU1 1411 TIP3 OH2  OT    -0.834000       15.9994           0
     821 WTU1 1411 TIP3 H1   HT     0.417000        1.0079           0
     822 WTU1 1411 TIP3 H2   HT     0.417000        1.0079           0
     823 WTU1 1412 TIP3 OH2  OT    -0.834000       15.9994           0
     824 WTU1 1412 TIP3 H1   HT     0.417000        1.0079           0
     825 WTU1 1412 TIP3 H2   HT     0.417000        1.0079           0
     826 WTU1 1413 TIP3 OH2  OT    -0.834000       15.9994           0
     827 WTU1 1413 TIP3 H1   HT     0.417000        1.0079           0
     828 WTU1 1413 TIP3 H2   HT     0.417000        1.0079           0
     829 WTU1 1428 TIP3 OH2  OT    -0.834000       15.9994           0
     830 WTU1 1428 TIP3 H1   HT     0.417000        1.0079           0
     831 WTU1 1428 TIP3 H2   HT     0.417000        1.0079           0
     832 WTU1 1429 TIP3 OH2  OT    -0.834000       15.9994           0
     833 WTU1 1429 TIP3 H1   HT     0.417000        1.0079           0
     834 WTU1 1429 TIP3 H2   HT     0.417000        1.0079           0
     835 WTU1 1431 TIP3 OH2  OT    -0.834000       15.9994           0
     836 WTU1 1431 TIP3 H1   HT     0.417000        1.0079           0
     837 WTU1 1431 TIP3 H2   HT     0.417000        1.0079           0
     838 WTU1 1450 TIP3 OH2  OT    -0.834000       15.9994           0
     839 WTU1 1450 TIP3 H1   HT     0.417000        1.0079           0
     840 WTU1 1450 TIP3 H2   HT     0.417000        1.0079           0
     841 WTU1 1451 TIP3 OH2  OT    -0.834000       15.9994           0
     842 WTU1 1451 TIP3 H1   HT     0.417000        1.0079           0
     843 WTU1 1451 TIP3 H2   HT     0.417000        1.0079           0
     844 WTU1 1453 TIP3 OH2  OT    -0.834000       15.9994           0
     845 WTU1 1453 TIP3 H1   HT     0.417000        1.0079           0
     846 WTU1 1453 TIP3 H2   HT     0.417000        1.0079           0
     847 WTU1 1454 TIP3 OH2  OT    -0.834000       15.9994           0
     848 WTU1 1454 TIP3 H1   HT     0.417000        1.0079           0
     849 WTU1 1454 TIP3 H2   HT     0.417000        1.0079           0
     850 WTU1 1466 TIP3 OH2  OT    -0.834000       15.9994           0
     851 WTU1 1466 TIP3 H1   HT     0.417000        1.0079           0
     852 WTU1 1466 TIP3 H2   HT     0.417000        1.0079           0
     853 WTU1 1471 TIP3 OH2  OT    -0.834000       15.9994           0
     854 WTU1 1471 TIP3 H1   HT     0.417000        1.0079           0
     855 WTU1 1471 TIP3 H2   HT     0.417000        1.0079           0
     856 WTU1 1474 TIP3 OH2  OT    -0.834000       15.9994           0
     857 WTU1 1474 TIP3 H1   HT     0.417000        1.0079           0
     858 WTU1 1474 TIP3 H2   HT     0.417000        1.0079           0
     859 WTU1 1492 TIP3 OH2  OT    -0.834000       15.9994           0
     860 WTU1 1492 TIP3 H1   HT     0.417000        1.0079           0
     861 WTU1 1492 TIP3 H2   HT     0.417000        1.0079           0
     862 WTU1 1497 TIP3 OH2  OT    -0.834000       15.9994           0
     863 WTU1 1497 TIP3 H1   HT     0.417000        1.0079           0
     864 WTU1 1497 TIP3 H2   HT     0.417000        1.0079           0
     865 WTU1 1512 TIP3 OH2  OT    -0.834000       15.9994           0
     866 WTU1 1512 TIP3 H1   HT     0.417000        1.0079           0
     867 WTU1 1512 TIP3 H2   HT     0.417000        1.0079           0
     868 WTU1 1514 TIP3 OH2  OT    -0.834000       15.9994           0
     869 WTU1 1514 TIP3 H1   HT     0.417000        1.0079           0
     870 WTU1 1514 TIP3 H2   HT     0.417000        1.0079           0
     871 WTU1 1515 TIP3 OH2  OT    -0.834000       15.9994           0
     872 WTU1 1515 TIP3 H1   HT     0.417000        1.0079           0
     873 WTU1 1515 TIP3 H2   HT     0.417000        1.0079           0
     874 WTU1 1519 TIP3 OH2  OT    -0.834000       15.9994           0
     875 WTU1 1519 TIP3 H1   HT     0.417000        1.0079           0
     876 WTU1 1519 TIP3 H2   HT     0.417000        1.0079           0
     877 WTU1 1531 TIP3 OH2  OT    -0.834000       15.9994           0
     878 WTU1 1531 TIP3 H1   HT     0.417000        1.0079           0
     879 WTU1 1531 TIP3 H2   HT     0.417000        1.0079           0
     880 WTU1 1534 TIP3 OH2  OT    -0.834000       15.9994           0
     881 WTU1 1534 TIP3 H1   HT     0.417000        1.0079           0
     882 WTU1 1534 TIP3 H2   HT     0.417000        1.0079           0
     883 WTU1 1536 TIP3 OH2  OT    -0.834000       15.9994           0
     884 WTU1 1536 TIP3 H1   HT     0.417000        1.0079           0
     885 WTU1 1536 TIP3 H2   HT     0.417000        1.0079           0
     886 WTU1 1537 TIP3 OH2  OT    -0.834000       15.9994           0
     887 WTU1 1537 TIP3 H1   HT     0.417000        1.0079           0
     888 WTU1 1537 TIP3 H2   HT     0.417000        1.0079           0
     889 WTU1 1538 TIP3 OH2  OT    -0.834000       15.9994           0
     890 WTU1 1538 TIP3 H1   HT     0.417000        1.0079           0
     891 WTU1 1538 TIP3 H2   HT     0.417000        1.0079           0
     892 WTU1 1551 TIP3 OH2  OT    -0.834000       15.9994           0
     893 WTU1 1551 TIP3 H1   HT     0.417000        1.0079           0
     894 WTU1 1551 TIP3 H2   HT     0.417000        1.0079           0
     895 WTU1 1552 TIP3 OH2  OT    -0.834000       15.9994           0
     896 WTU1 1552 TIP3 H1   HT     0.417000        1.0079           0
     897 WTU1 1552 TIP3 H2   HT     0.417000        1.0079           0
     898 WTU1 1577 TIP3 OH2  OT    -0.834000       15.9994           0
     899 WTU1 1577 TIP3 H1   HT     0.417000        1.0079           0
     900 WTU1 1577 TIP3 H2   HT     0.417000        1.0079           0
     901 WTU1 1578 TIP3 OH2  OT    -0.834000       15.9994           0
     902 WTU1 1578 TIP3 H1   HT     0.417000        1.0079           0
     903 WTU1 1578 TIP3 H2   HT     0.417000        1.0079           0
     904 WTU1 1579 TIP3 OH2  OT    -0.834000       15.9994           0
     905 WTU1 1579 TIP3 H1   HT     0.417000        1.0079           0
     906 WTU1 1579 TIP3 H2   HT     0.417000        1.0079           0
     907 WTU1 1583 TIP3 OH2  OT    -0.834000       15.9994           0
     908 WTU1 1583 TIP3 H1   HT     0.417000        1.0079           0
     909 WTU1 1583 TIP3 H2   HT     0.417000        1.0079           0
     910 WTU1 1599 TIP3 OH2  OT    -0.834000       15.9994           0
     911 WTU1 1599 TIP3 H1   HT     0.417000        1.0079           0
     912 WTU1 1599 TIP3 H2   HT     0.417000        1.0079           0
     913 WTU1 1605 TIP3 OH2  OT    -0.834000       15.9994           0
     914 WTU1 1605 TIP3 H1   HT     0.417000        1.0079           0
     915 WTU1 1605 TIP3 H2   HT     0.417000        1.0079           0
     916 WTU1 1616 TIP3 OH2  OT    -0.834000       15.9994           0
     917 WTU1 1616 TIP3 H1   HT     0.417000        1.0079           0
     918 WTU1 1616 TIP3 H2   HT     0.417000        1.0079           0
     919 WTU1 1617 TIP3 OH2  OT    -0.834000       15.9994           0
     920 WTU1 1617 TIP3 H1   HT     0.417000        1.0079           0
     921 WTU1 1617 TIP3 H2   HT     0.417000        1.0079           0
     922 WTU1 1621 TIP3 OH2  OT    -0.834000       15.9994           0
     923 WTU1 1621 TIP3 H1   HT     0.417000        1.0079           0
     924 WTU1 1621 TIP3 H2   HT     0.417000        1.0079           0
     925 WTU1 1622 TIP3 OH2  OT    -0.834000       15.9994           0
     926 WTU1 1622 TIP3 H1   HT     0.417000        1.0079           0
     927 WTU1 1622 TIP3 H2   HT     0.417000        1.0079           0
     928 WTU1 1638 TIP3 OH2  OT    -0.834000       15.9994           0
     929 WTU1 1638 TIP3 H1   HT     0.417000        1.0079           0
     930 WTU1 1638 TIP3 H2   HT     0.417000        1.0079           0
     931 WTU1 1639 TIP3 OH2  OT    -0.834000       15.9994           0
     932 WTU1 1639 TIP3 H1   HT     0.417000        1.0079           0
     933 WTU1 1639 TIP3 H2   HT     0.417000        1.0079           0
     934 WTU1 1640 TIP3 OH2  OT    -0.834000       15.9994           0
     935 WTU1 1640 TIP3 H1   HT     0.417000        1.0079           0
     936 WTU1 1640 TIP3 H2   HT     0.417000        1.0079           0
     937 WTU1 1645 TIP3 OH2  OT    -0.834000       15.9994           0
     938 WTU1 1645 TIP3 H1   HT     0.417000        1.0079           0
     939 WTU1 1645 TIP3 H2   HT     0.417000        1.0079           0
     940 WTU1 1656 TIP3 OH2  OT    -0.834000       15.9994           0
     941 WTU1 1656 TIP3 H1   HT     0.417000        1.0079           0
     942 WTU1 1656 TIP3 H2   HT     0.417000        1.0079           0
     943 WTU1 1658 TIP3 OH2  OT    -0.834000       15.9994           0
     944 WTU1 1658 TIP3 H1   HT     0.417000        1.0079           0
     945 WTU1 1658 TIP3 H2   HT     0.417000        1.0079           0
     946 WTU1 1659 TIP3 OH2  OT    -0.834000       15.9994           0
     947 WTU1 1659 TIP3 H1   HT     0.417000        1.0079           0
     948 WTU1 1659 TIP3 H2   HT     0.417000        1.0079           0
     949 WTU1 1661 TIP3 OH2  OT    -0.834000       15.9994           0
     950 WTU1 1661 TIP3 H1   HT     0.417000        1.0079           0
     951 WTU1 1661 TIP3 H2   HT     0.417000        1.0079           0
     952 WTU1 1665 TIP3 OH2  OT    -0.834000       15.9994           0
     953 WTU1 1665 TIP3 H1   HT     0.417000        1.0079           0
     954 WTU1 1665 TIP3 H2   HT     0.417000        1.0079           0
     955 WTU1 1681 TIP3 OH2  OT    -0.834000       15.9994           0
     956 WTU1 1681 TIP3 H1   HT     0.417000        1.0079           0
     957 WTU1 1681 TIP3 H2   HT     0.417000        1.0079           0
     958 WTU1 1684 TIP3 OH2  OT    -0.834000       15.9994           0
     959 WTU1 1684 TIP3 H1   HT     0.417000        1.0079           0
     960 WTU1 1684 TIP3 H2   HT     0.417000        1.0079           0
     961 WTU1 1688 TIP3 OH2  OT    -0.834000       15.9994           0
     962 WTU1 1688 TIP3 H1   HT     0.417000        1.0079           0
     963 WTU1 1688 TIP3 H2   HT     0.417000        1.0079           0
     964 WTU1 1701 TIP3 OH2  OT    -0.834000       15.9994           0
     965 WTU1 1701 TIP3 H1   HT     0.417000        1.0079           0
     966 WTU1 1701 TIP3 H2   HT     0.417000        1.0079           0
     967 WTU1 1702 TIP3 OH2  OT    -0.834000       15.9994           0
     968 WTU1 1702 TIP3 H1   HT     0.417000        1.0079           0
     969 WTU1 1702 TIP3 H2   HT     0.417000        1.0079           0
     970 WTU1 1704 TIP3 OH2  OT    -0.834000       15.9994           0
     971 WTU1 1704 TIP3 H1   HT     0.417000        1.0079           0
     972 WTU1 1704 TIP3 H2   HT     0.417000        1.0079           0
     973 WTU1 1707 TIP3 OH2  OT    -0.834000       15.9994           0
     974 WTU1 1707 TIP3 H1   HT     0.417000        1.0079           0
     975 WTU1 1707 TIP3 H2   HT     0.417000        1.0079           0
     976 WTU1 1708 TIP3 OH2  OT    -0.834000       15.9994           0
     977 WTU1 1708 TIP3 H1   HT     0.417000        1.0079           0
     978 WTU1 1708 TIP3 H2   HT     0.417000        1.0079           0
     979 WTU1 1725 TIP3 OH2  OT    -0.834000       15.9994           0
     980 WTU1 1725 TIP3 H1   HT     0.417000        1.0079           0
     981 WTU1 1725 TIP3 H2   HT     0.417000        1.0079           0
     982 WTU1 1728 TIP3 OH2  OT    -0.834000       15.9994           0
     983 WTU1 1728 TIP3 H1   HT     0.417000        1.0079           0
     984 WTU1 1728 TIP3 H2   HT     0.417000        1.0079           0
     985 WTU1 1744 TIP3 OH2  OT    -0.834000       15.9994           0
     986 WTU1 1744 TIP3 H1   HT     0.417000        1.0079           0
     987 WTU1 1744 TIP3 H2   HT     0.417000        1.0079           0
     988 WTU1 1747 TIP3 OH2  OT    -0.834000       15.9994           0
     989 WTU1 1747 TIP3 H1   HT     0.417000        1.0079           0
     990 WTU1 1747 TIP3 H2   HT     0.417000        1.0079           0
     991 WTU1 1748 TIP3 OH2  OT    -0.834000       15.9994           0
     992 WTU1 1748 TIP3 H1   HT     0.417000        1.0079           0
     993 WTU1 1748 TIP3 H2   HT     0.417000        1.0079           0
     994 WTU1 1750 TIP3 OH2  OT    -0.834000       15.9994           0
     995 WTU1 1750 TIP3 H1   HT     0.417000        1.0079           0
     996 WTU1 1750 TIP3 H2   HT     0.417000        1.0079           0
     997 WTU1 1751 TIP3 OH2  OT    -0.834000       15.9994           0
     998 WTU1 1751 TIP3 H1   HT     0.417000        1.0079           0
     999 WTU1 1751 TIP3 H2   HT     0.417000        1.0079           0
    1000 WTU1 1764 TIP3 OH2  OT    -0.834000       15.9994           0
    1001 WTU1 1764 TIP3 H1   HT     0.417000        1.0079           0
    1002 WTU1 1764 TIP3 H2   HT     0.417000        1.0079           0
    1003 WTU1 1766 TIP3 OH2  OT    -0.834000       15.9994           0
    1004 WTU1 1766 TIP3 H1   HT     0.417000        1.0079           0
    1005 WTU1 1766 TIP3 H2   HT     0.417000        1.0079           0
    1006 WTU1 1767 TIP3 OH2  OT    -0.834000       15.9994           0
    1007 WTU1 1767 TIP3 H1   HT     0.417000        1.0079           0
    1008 WTU1 1767 TIP3 H2   HT     0.417000        1.0079           0
    1009 WTU1 1768 TIP3 OH2  OT    -0.834000       15.9994           0
    1010 WTU1 1768 TIP3 H1   HT     0.417000        1.0079           0
    1011 WTU1 1768 TIP3 H2   HT     0.417000        1.0079           0
    1012 WTU1 1771 TIP3 OH2  OT    -0.834000       15.9994           0
    1013 WTU1 1771 TIP3 H1   HT     0.417000        1.0079           0
    1014 WTU1 1771 TIP3 H2   HT     0.417000        1.0079           0
    1015 WTU1 1784 TIP3 OH2  OT    -0.834000       15.9994           0
    1016 WTU1 1784 TIP3 H1   HT     0.417000        1.0079           0
    1017 WTU1 1784 TIP3 H2   HT     0.417000        1.0079           0
    1018 WTU1 1789 TIP3 OH2  OT    -0.834000       15.9994           0
    1019 WTU1 1789 TIP3 H1   HT     0.417000        1.0079           0
    1020 WTU1 1789 TIP3 H2   HT     0.417000        1.0079           0
    1021 WTU1 1791 TIP3 OH2  OT    -0.834000       15.9994           0
    1022 WTU1 1791 TIP3 H1   HT     0.417000        1.0079           0
    1023 WTU1 1791 TIP3 H2   HT     0.417000        1.0079           0
    1024 WTU1 1792 TIP3 OH2  OT    -0.834000       15.9994           0
    1025 WTU1 1792 TIP3 H1   HT     0.417000        1.0079           0
    1026 WTU1 1792 TIP3 H2   HT     0.417000        1.0079           0
    1027 WTU1 1810 TIP3 OH2  OT    -0.834000       15.9994           0
    1028 WTU1 1810 TIP3 H1   HT     0.417000        1.0079           0
    1029 WTU1 1810 TIP3 H2   HT     0.417000        1.0079           0
    1030 WTU1 1811 TIP3 OH2  OT    -0.834000       15.9994           0
    1031 WTU1 1811 TIP3 H1   HT     0.417000        1.0079           0
    1032 WTU1 1811 TIP3 H2   HT     0.417000        1.0079           0
    1033 WTU1 1824 TIP3 OH2  OT    -0.834000       15.9994           0
    1034 WTU1 1824 TIP3 H1   HT     0.417000        1.0079           0
    1035 WTU1 1824 TIP3 H2   HT     0.417000        1.0079           0
    1036 WTU1 1826 TIP3 OH2  OT    -0.834000       15.9994           0
    1037 WTU1 1826 TIP3 H1   HT     0.417000        1.0079           0
    1038 WTU1 1826 TIP3 H2   HT     0.417000        1.0079           0
    1039 WTU1 1829 TIP3 OH2  OT    -0.834000       15.9994           0
    1040 WTU1 1829 TIP3 H1   HT     0.417000        1.0079           0
    1041 WTU1 1829 TIP3 H2   HT     0.417000        1.0079           0
    1042 WTU1 1830 TIP3 OH2  OT    -0.834000       15.9994           0
    1043 WTU1 1830 TIP3 H1   HT     0.417000        1.0079           0
    1044 WTU1 1830 TIP3 H2   HT     0.417000        1.0079           0
    1045 WTU1 1831 TIP3 OH2  OT    -0.834000       15.9994           0
    1046 WTU1 1831 TIP3 H1   HT     0.417000        1.0079           0
    1047 WTU1 1831 TIP3 H2   HT     0.417000        1.0079           0
    1048 WTU1 1837 TIP3 OH2  OT    -0.834000       15.9994           0
    1049 WTU1 1837 TIP3 H1   HT     0.417000        1.0079           0
    1050 WTU1 1837 TIP3 H2   HT     0.417000        1.0079           0
    1051 WTU1 1847 TIP3 OH2  OT    -0.834000       15.9994           0
    1052 WTU1 1847 TIP3 H1   HT     0.417000        1.0079           0
    1053 WTU1 1847 TIP3 H2   HT     0.417000        1.0079           0
    1054 WTU1 1850 TIP3 OH2  OT    -0.834000       15.9994           0
    1055 WTU1 1850 TIP3 H1   HT     0.417000        1.0079           0
    1056 WTU1 1850 TIP3 H2   HT     0.417000        1.0079           0
    1057 WTU1 1851 TIP3 OH2  OT    -0.834000       15.9994           0
    1058 WTU1 1851 TIP3 H1   HT     0.417000        1.0079           0
    1059 WTU1 1851 TIP3 H2   HT     0.417000        1.0079           0
    1060 WTU1 1852 TIP3 OH2  OT    -0.834000       15.9994           0
    1061 WTU1 1852 TIP3 H1   HT     0.417000        1.0079           0
    1062 WTU1 1852 TIP3 H2   HT     0.417000        1.0079           0
    1063 WTU1 1853 TIP3 OH2  OT    -0.834000       15.9994           0
    1064 WTU1 1853 TIP3 H1   HT     0.417000        1.0079           0
    1065 WTU1 1853 TIP3 H2   HT     0.417000        1.0079           0
    1066 WTU1 1854 TIP3 OH2  OT    -0.834000       15.9994           0
    1067 WTU1 1854 TIP3 H1   HT     0.417000        1.0079           0
    1068 WTU1 1854 TIP3 H2   HT     0.417000        1.0079           0
    1069 WTU1 1855 TIP3 OH2  OT    -0.834000       15.9994           0
    1070 WTU1 1855 TIP3 H1   HT     0.417000        1.0079           0
    1071 WTU1 1855 TIP3 H2   HT     0.417000        1.0079           0
    1072 WTU1 1856 TIP3 OH2  OT    -0.834000       15.9994           0
    1073 WTU1 1856 TIP3 H1   HT     0.417000        1.0079           0
    1074 WTU1 1856 TIP3 H2   HT     0.417000        1.0079           0
    1075 WTU1 1870 TIP3 OH2  OT    -0.834000       15.9994           0
    1076 WTU1 1870 TIP3 H1   HT     0.417000        1.0079           0
    1077 WTU1 1870 TIP3 H2   HT     0.417000        1.0079           0
    1078 WTU1 1871 TIP3 OH2  OT    -0.834000       15.9994           0
    1079 WTU1 1871 TIP3 H1   HT     0.417000        1.0079           0
    1080 WTU1 1871 TIP3 H2   HT     0.417000        1.0079           0
    1081 WTU1 1872 TIP3 OH2  OT    -0.834000       15.9994           0
    1082 WTU1 1872 TIP3 H1   HT     0.417000        1.0079           0
    1083 WTU1 1872 TIP3 H2   HT     0.417000        1.0079           0
    1084 WTU1 1873 TIP3 OH2  OT    -0.834000       15.9994           0
    1085 WTU1 1873 TIP3 H1   HT     0.417000        1.0079           0
    1086 WTU1 1873 TIP3 H2   HT     0.417000        1.0079           0
    1087 WTU1 1875 TIP3 OH2  OT    -0.834000       15.9994           0
    1088 WTU1 1875 TIP3 H1   HT     0.417000        1.0079           0
    1089 WTU1 1875 TIP3 H2   HT     0.417000        1.0079           0
    1090 WTU1 1881 TIP3 OH2  OT    -0.834000       15.9994           0
    1091 WTU1 1881 TIP3 H1   HT     0.417000        1.0079           0
    1092 WTU1 1881 TIP3 H2   HT     0.417000        1.0079           0
    1093 WTU1 1885 TIP3 OH2  OT    -0.834000       15.9994           0
    1094 WTU1 1885 TIP3 H1   HT     0.417000        1.0079           0
    1095 WTU1 1885 TIP3 H2   HT     0.417000        1.0079           0
    1096 WTU1 1891 TIP3 OH2  OT    -0.834000       15.9994           0
    1097 WTU1 1891 TIP3 H1   HT     0.417000        1.0079           0
    1098 WTU1 1891 TIP3 H2   HT     0.417000        1.0079           0
    1099 WTU1 1892 TIP3 OH2  OT    -0.834000       15.9994           0
    1100 WTU1 1892 TIP3 H1   HT     0.417000        1.0079           0
    1101 WTU1 1892 TIP3 H2   HT     0.417000        1.0079           0
    1102 WTU1 1896 TIP3 OH2  OT    -0.834000       15.9994           0
    1103 WTU1 1896 TIP3 H1   HT     0.417000        1.0079           0
    1104 WTU1 1896 TIP3 H2   HT     0.417000        1.0079           0
    1105 WTU1 1911 TIP3 OH2  OT    -0.834000       15.9994           0
    1106 WTU1 1911 TIP3 H1   HT     0.417000        1.0079           0
    1107 WTU1 1911 TIP3 H2   HT     0.417000        1.0079           0
    1108 WTU1 1912 TIP3 OH2  OT    -0.834000       15.9994           0
    1109 WTU1 1912 TIP3 H1   HT     0.417000        1.0079           0
    1110 WTU1 1912 TIP3 H2   HT     0.417000        1.0079           0
    1111 WTU1 1913 TIP3 OH2  OT    -0.834000       15.9994           0
    1112 WTU1 1913 TIP3 H1   HT     0.417000        1.0079           0
    1113 WTU1 1913 TIP3 H2   HT     0.417000        1.0079           0
    1114 WTU1 1915 TIP3 OH2  OT    -0.834000       15.9994           0
    1115 WTU1 1915 TIP3 H1   HT     0.417000        1.0079           0
    1116 WTU1 1915 TIP3 H2   HT     0.417000        1.0079           0
    1117 WTU1 1917 TIP3 OH2  OT    -0.834000       15.9994           0
    1118 WTU1 1917 TIP3 H1   HT     0.417000        1.0079           0
    1119 WTU1 1917 TIP3 H2   HT     0.417000        1.0079           0
    1120 WTU1 1918 TIP3 OH2  OT    -0.834000       15.9994           0
    1121 WTU1 1918 TIP3 H1   HT     0.417000        1.0079           0
    1122 WTU1 1918 TIP3 H2   HT     0.417000        1.0079           0
    1123 WTU1 1931 TIP3 OH2  OT    -0.834000       15.9994           0
    1124 WTU1 1931 TIP3 H1   HT     0.417000        1.0079           0
    1125 WTU1 1931 TIP3 H2   HT     0.417000        1.0079           0
    1126 WTU1 1934 TIP3 OH2  OT    -0.834000       15.9994           0
    1127 WTU1 1934 TIP3 H1   HT     0.417000        1.0079           0
    1128 WTU1 1934 TIP3 H2   HT     0.417000        1.0079           0
    1129 WTU1 1935 TIP3 OH2  OT    -0.834000       15.9994           0
    1130 WTU1 1935 TIP3 H1   HT     0.417000        1.0079           0
    1131 WTU1 1935 TIP3 H2   HT     0.417000        1.0079           0
    1132 WTU1 1950 TIP3 OH2  OT    -0.834000       15.9994           0
    1133 WTU1 1950 TIP3 H1   HT     0.417000        1.0079           0
    1134 WTU1 1950 TIP3 H2   HT     0.417000        1.0079           0
    1135 WTU1 1952 TIP3 OH2  OT    -0.834000       15.9994           0
    1136 WTU1 1952 TIP3 H1   HT     0.417000        1.0079           0
    1137 WTU1 1952 TIP3 H2   HT     0.417000        1.0079           0
    1138 WTU1 1953 TIP3 OH2  OT    -0.834000       15.9994           0
    1139 WTU1 1953 TIP3 H1   HT     0.417000        1.0079           0
    1140 WTU1 1953 TIP3 H2   HT     0.417000        1.0079           0
    1141 WTU1 1954 TIP3 OH2  OT    -0.834000       15.9994           0
    1142 WTU1 1954 TIP3 H1   HT     0.417000        1.0079           0
    1143 WTU1 1954 TIP3 H2   HT     0.417000        1.0079           0
    1144 WTU1 1955 TIP3 OH2  OT    -0.834000       15.9994           0
    1145 WTU1 1955 TIP3 H1   HT     0.417000        1.0079           0
    1146 WTU1 1955 TIP3 H2   HT     0.417000        1.0079           0
    1147 WTU1 1976 TIP3 OH2  OT    -0.834000       15.9994           0
    1148 WTU1 1976 TIP3 H1   HT     0.417000        1.0079           0
    1149 WTU1 1976 TIP3 H2   HT     0.417000        1.0079           0
    1150 WTU1 1977 TIP3 OH2  OT    -0.834000       15.9994           0
    1151 WTU1 1977 TIP3 H1   HT     0.417000        1.0079           0
    1152 WTU1 1977 TIP3 H2   HT     0.417000        1.0079           0
    1153 WTU1 1978 TIP3 OH2  OT    -0.834000       15.9994           0
    1154 WTU1 1978 TIP3 H1   HT     0.417000        1.0079           0
    1155 WTU1 1978 TIP3 H2   HT     0.417000        1.0079           0
    1156 WTU1 1993 TIP3 OH2  OT    -0.834000       15.9994           0
    1157 WTU1 1993 TIP3 H1   HT     0.417000        1.0079           0
    1158 WTU1 1993 TIP3 H2   HT     0.417000        1.0079           0
    1159 WTU1 1998 TIP3 OH2  OT    -0.834000       15.9994           0
    1160 WTU1 1998 TIP3 H1   HT     0.417000        1.0079           0
    1161 WTU1 1998 TIP3 H2   HT     0.417000        1.0079           0
    1162 WTU1 2000 TIP3 OH2  OT    -0.834000       15.9994           0
    1163 WTU1 2000 TIP3 H1   HT     0.417000        1.0079           0
    1164 WTU1 2000 TIP3 H2   HT     0.417000        1.0079           0
    1165 WTU1 2002 TIP3 OH2  OT    -0.834000       15.9994           0
    1166 WTU1 2002 TIP3 H1   HT     0.417000        1.0079           0
    1167 WTU1 2002 TIP3 H2   HT     0.417000        1.0079           0
    1168 WTU1 2014 TIP3 OH2  OT    -0.834000       15.9994           0
    1169 WTU1 2014 TIP3 H1   HT     0.417000        1.0079           0
    1170 WTU1 2014 TIP3 H2   HT     0.417000        1.0079           0
    1171 WTU1 2016 TIP3 OH2  OT    -0.834000       15.9994           0
    1172 WTU1 2016 TIP3 H1   HT     0.417000        1.0079           0
    1173 WTU1 2016 TIP3 H2   HT     0.417000        1.0079           0
    1174 WTU1 2018 TIP3 OH2  OT    -0.834000       15.9994           0
    1175 WTU1 2018 TIP3 H1   HT     0.417000        1.0079           0
    1176 WTU1 2018 TIP3 H2   HT     0.417000        1.0079           0
    1177 WTU1 2022 TIP3 OH2  OT    -0.834000       15.9994           0
    1178 WTU1 2022 TIP3 H1   HT     0.417000        1.0079           0
    1179 WTU1 2022 TIP3 H2   HT     0.417000        1.0079           0
    1180 WTU1 2037 TIP3 OH2  OT    -0.834000       15.9994           0
    1181 WTU1 2037 TIP3 H1   HT     0.417000        1.0079           0
    1182 WTU1 2037 TIP3 H2   HT     0.417000        1.0079           0
    1183 WTU1 2038 TIP3 OH2  OT    -0.834000       15.9994           0
    1184 WTU1 2038 TIP3 H1   HT     0.417000        1.0079           0
    1185 WTU1 2038 TIP3 H2   HT     0.417000        1.0079           0
    1186 WTU1 2039 TIP3 OH2  OT    -0.834000       15.9994           0
    1187 WTU1 2039 TIP3 H1   HT     0.417000        1.0079           0
    1188 WTU1 2039 TIP3 H2   HT     0.417000        1.0079           0
    1189 WTU1 2040 TIP3 OH2  OT    -0.834000       15.9994           0
    1190 WTU1 2040 TIP3 H1   HT     0.417000        1.0079           0
    1191 WTU1 2040 TIP3 H2   HT     0.417000        1.0079           0
    1192 WTU1 2043 TIP3 OH2  OT    -0.834000       15.9994           0
    1193 WTU1 2043 TIP3 H1   HT     0.417000        1.0079           0
    1194 WTU1 2043 TIP3 H2   HT     0.417000        1.0079           0
    1195 WTU1 2059 TIP3 OH2  OT    -0.834000       15.9994           0
    1196 WTU1 2059 TIP3 H1   HT     0.417000        1.0079           0
    1197 WTU1 2059 TIP3 H2   HT     0.417000        1.0079           0
    1198 WTU1 2060 TIP3 OH2  OT    -0.834000       15.9994           0
    1199 WTU1 2060 TIP3 H1   HT     0.417000        1.0079           0
    1200 WTU1 2060 TIP3 H2   HT     0.417000        1.0079           0
    1201 WTU1 2063 TIP3 OH2  OT    -0.834000       15.9994           0
    1202 WTU1 2063 TIP3 H1   HT     0.417000        1.0079           0
    1203 WTU1 2063 TIP3 H2   HT     0.417000        1.0079           0
    1204 WTU1 2064 TIP3 OH2  OT    -0.834000       15.9994           0
    1205 WTU1 2064 TIP3 H1   HT     0.417000        1.0079           0
    1206 WTU1 2064 TIP3 H2   HT     0.417000        1.0079           0
    1207 WTU1 2079 TIP3 OH2  OT    -0.834000       15.9994           0
    1208 WTU1 2079 TIP3 H1   HT     0.417000        1.0079           0
    1209 WTU1 2079 TIP3 H2   HT     0.417000        1.0079           0
    1210 WTU1 2081 TIP3 OH2  OT    -0.834000       15.9994           0
    1211 WTU1 2081 TIP3 H1   HT     0.417000        1.0079           0
    1212 WTU1 2081 TIP3 H2   HT     0.417000        1.0079           0
    1213 WTU1 2082 TIP3 OH2  OT    -0.834000       15.9994           0
    1214 WTU1 2082 TIP3 H1   HT     0.417000        1.0079           0
    1215 WTU1 2082 TIP3 H2   HT     0.417000        1.0079           0
    1216 WTU1 2084 TIP3 OH2  OT    -0.834000       15.9994           0
    1217 WTU1 2084 TIP3 H1   HT     0.417000        1.0079           0
    1218 WTU1 2084 TIP3 H2   HT     0.417000        1.0079           0
    1219 WTU1 2104 TIP3 OH2  OT    -0.834000       15.9994           0
    1220 WTU1 2104 TIP3 H1   HT     0.417000        1.0079           0
    1221 WTU1 2104 TIP3 H2   HT     0.417000        1.0079           0
    1222 WTU1 2122 TIP3 OH2  OT    -0.834000       15.9994           0
    1223 WTU1 2122 TIP3 H1   HT     0.417000        1.0079           0
    1224 WTU1 2122 TIP3 H2   HT     0.417000        1.0079           0
    1225 WTU1 2123 TIP3 OH2  OT    -0.834000       15.9994           0
    1226 WTU1 2123 TIP3 H1   HT     0.417000        1.0079           0
    1227 WTU1 2123 TIP3 H2   HT     0.417000        1.0079           0
    1228 WTU1 2124 TIP3 OH2  OT    -0.834000       15.9994           0
    1229 WTU1 2124 TIP3 H1   HT     0.417000        1.0079           0
    1230 WTU1 2124 TIP3 H2   HT     0.417000        1.0079           0
    1231 WTU1 2125 TIP3 OH2  OT    -0.834000       15.9994           0
    1232 WTU1 2125 TIP3 H1   HT     0.417000        1.0079           0
    1233 WTU1 2125 TIP3 H2   HT     0.417000        1.0079           0
    1234 WTU1 2126 TIP3 OH2  OT    -0.834000       15.9994           0
    1235 WTU1 2126 TIP3 H1   HT     0.417000        1.0079           0
    1236 WTU1 2126 TIP3 H2   HT     0.417000        1.0079           0
    1237 WTU1 2143 TIP3 OH2  OT    -0.834000       15.9994           0
    1238 WTU1 2143 TIP3 H1   HT     0.417000        1.0079           0
    1239 WTU1 2143 TIP3 H2   HT     0.417000        1.0079           0
    1240 WTU1 2148 TIP3 OH2  OT    -0.834000       15.9994           0
    1241 WTU1 2148 TIP3 H1   HT     0.417000        1.0079           0
    1242 WTU1 2148 TIP3 H2   HT     0.417000        1.0079           0
    1243 WTU1 2165 TIP3 OH2  OT    -0.834000       15.9994           0
    1244 WTU1 2165 TIP3 H1   HT     0.417000        1.0079           0
    1245 WTU1 2165 TIP3 H2   HT     0.417000        1.0079           0
    1246 WTU1 2166 TIP3 OH2  OT    -0.834000       15.9994           0
    1247 WTU1 2166 TIP3 H1   HT     0.417000        1.0079           0
    1248 WTU1 2166 TIP3 H2   HT     0.417000        1.0079           0
    1249 WTU1 2167 TIP3 OH2  OT    -0.834000       15.9994           0
    1250 WTU1 2167 TIP3 H1   HT     0.417000        1.0079           0
    1251 WTU1 2167 TIP3 H2   HT     0.417000        1.0079           0
    1252 WTU1 2168 TIP3 OH2  OT    -0.834000       15.9994           0
    1253 WTU1 2168 TIP3 H1   HT     0.417000        1.0079           0
    1254 WTU1 2168 TIP3 H2   HT     0.417000        1.0079           0
    1255 WTU1 2170 TIP3 OH2  OT    -0.834000       15.9994           0
    1256 WTU1 2170 TIP3 H1   HT     0.417000        1.0079           0
    1257 WTU1 2170 TIP3 H2   HT     0.417000        1.0079           0
    1258 WTU1 2183 TIP3 OH2  OT    -0.834000       15.9994           0
    1259 WTU1 2183 TIP3 H1   HT     0.417000        1.0079           0
    1260 WTU1 2183 TIP3 H2   HT     0.417000        1.0079           0
    1261 WTU1 2187 TIP3 OH2  OT    -0.834000       15.9994           0
    1262 WTU1 2187 TIP3 H1   HT     0.417000        1.0079           0
    1263 WTU1 2187 TIP3 H2   HT     0.417000        1.0079           0
    1264 WTU1 2188 TIP3 OH2  OT    -0.834000       15.9994           0
    1265 WTU1 2188 TIP3 H1   HT     0.417000        1.0079           0
    1266 WTU1 2188 TIP3 H2   HT     0.417000        1.0079           0
    1267 WTU1 2190 TIP3 OH2  OT    -0.834000       15.9994           0
    1268 WTU1 2190 TIP3 H1   HT     0.417000        1.0079           0
    1269 WTU1 2190 TIP3 H2   HT     0.417000        1.0079           0
    1270 WTU1 2205 TIP3 OH2  OT    -0.834000       15.9994           0
    1271 WTU1 2205 TIP3 H1   HT     0.417000        1.0079           0
    1272 WTU1 2205 TIP3 H2   HT     0.417000        1.0079           0
    1273 WTU1 2207 TIP3 OH2  OT    -0.834000       15.9994           0
    1274 WTU1 2207 TIP3 H1   HT     0.417000        1.0079           0
    1275 WTU1 2207 TIP3 H2   HT     0.417000        1.0079           0
    1276 WTU1 2208 TIP3 OH2  OT    -0.834000       15.9994           0
    1277 WTU1 2208 TIP3 H1   HT     0.417000        1.0079           0
    1278 WTU1 2208 TIP3 H2   HT     0.417000        1.0079           0
    1279 WTU1 2209 TIP3 OH2  OT    -0.834000       15.9994           0
    1280 WTU1 2209 TIP3 H1   HT     0.417000        1.0079           0
    1281 WTU1 2209 TIP3 H2   HT     0.417000        1.0079           0
    1282 WTU1 2223 TIP3 OH2  OT    -0.834000       15.9994           0
    1283 WTU1 2223 TIP3 H1   HT     0.417000        1.0079           0
    1284 WTU1 2223 TIP3 H2   HT     0.417000        1.0079           0
    1285 WTU1 2227 TIP3 OH2  OT    -0.834000       15.9994           0
    1286 WTU1 2227 TIP3 H1   HT     0.417000        1.0079           0
    1287 WTU1 2227 TIP3 H2   HT     0.417000        1.0079           0
    1288 WTU1 2228 TIP3 OH2  OT    -0.834000       15.9994           0
    1289 WTU1 2228 TIP3 H1   HT     0.417000        1.0079           0
    1290 WTU1 2228 TIP3 H2   HT     0.417000        1.0079           0
    1291 WTU1 2229 TIP3 OH2  OT    -0.834000       15.9994           0
    1292 WTU1 2229 TIP3 H1   HT     0.417000        1.0079           0
    1293 WTU1 2229 TIP3 H2   HT     0.417000        1.0079           0
    1294 WTU1 2233 TIP3 OH2  OT    -0.834000       15.9994           0
    1295 WTU1 2233 TIP3 H1   HT     0.417000        1.0079           0
    1296 WTU1 2233 TIP3 H2   HT     0.417000        1.0079           0
    1297 WTU1 2244 TIP3 OH2  OT    -0.834000       15.9994           0
    1298 WTU1 2244 TIP3 H1   HT     0.417000        1.0079           0
    1299 WTU1 2244 TIP3 H2   HT     0.417000        1.0079           0
    1300 WTU1 2250 TIP3 OH2  OT    -0.834000       15.9994           0
    1301 WTU1 2250 TIP3 H1   HT     0.417000        1.0079           0
    1302 WTU1 2250 TIP3 H2   HT     0.417000        1.0079           0
    1303 WTU1 2251 TIP3 OH2  OT    -0.834000       15.9994           0
    1304 WTU1 2251 TIP3 H1   HT     0.417000        1.0079           0
    1305 WTU1 2251 TIP3 H2   HT     0.417000        1.0079           0
    1306 WTU1 2253 TIP3 OH2  OT    -0.834000       15.9994           0
    1307 WTU1 2253 TIP3 H1   HT     0.417000        1.0079           0
    1308 WTU1 2253 TIP3 H2   HT     0.417000        1.0079           0
    1309 WTU1 2255 TIP3 OH2  OT    -0.834000       15.9994           0
    1310 WTU1 2255 TIP3 H1   HT     0.417000        1.0079           0
    1311 WTU1 2255 TIP3 H2   HT     0.417000        1.0079           0
    1312 WTU1 2270 TIP3 OH2  OT    -0.834000       15.9994           0
    1313 WTU1 2270 TIP3 H1   HT     0.417000        1.0079           0
    1314 WTU1 2270 TIP3 H2   HT     0.417000        1.0079           0
    1315 WTU1 2271 TIP3 OH2  OT    -0.834000       15.9994           0
    1316 WTU1 2271 TIP3 H1   HT     0.417000        1.0079           0
    1317 WTU1 2271 TIP3 H2   HT     0.417000        1.0079           0
    1318 WTU1 2275 TIP3 OH2  OT    -0.834000       15.9994           0
    1319 WTU1 2275 TIP3 H1   HT     0.417000        1.0079           0
    1320 WTU1 2275 TIP3 H2   HT     0.417000        1.0079           0
    1321 WTU1 2288 TIP3 OH2  OT    -0.834000       15.9994           0
    1322 WTU1 2288 TIP3 H1   HT     0.417000        1.0079           0
    1323 WTU1 2288 TIP3 H2   HT     0.417000        1.0079           0
    1324 WTU1 2290 TIP3 OH2  OT    -0.834000       15.9994           0
    1325 WTU1 2290 TIP3 H1   HT     0.417000        1.0079           0
    1326 WTU1 2290 TIP3 H2   HT     0.417000        1.0079           0
    1327 WTU1 2293 TIP3 OH2  OT    -0.834000       15.9994           0
    1328 WTU1 2293 TIP3 H1   HT     0.417000        1.0079           0
    1329 WTU1 2293 TIP3 H2   HT     0.417000        1.0079           0
    1330 WTU1 2296 TIP3 OH2  OT    -0.834000       15.9994           0
    1331 WTU1 2296 TIP3 H1   HT     0.417000        1.0079           0
    1332 WTU1 2296 TIP3 H2   HT     0.417000        1.0079           0
    1333 WTU1 2309 TIP3 OH2  OT    -0.834000       15.9994           0
    1334 WTU1 2309 TIP3 H1   HT     0.417000        1.0079           0
    1335 WTU1 2309 TIP3 H2   HT     0.417000        1.0079           0
    1336 WTU1 2311 TIP3 OH2  OT    -0.834000       15.9994           0
    1337 WTU1 2311 TIP3 H1   HT     0.417000        1.0079           0
    1338 WTU1 2311 TIP3 H2   HT     0.417000        1.0079           0
    1339 WTU1 2313 TIP3 OH2  OT    -0.834000       15.9994           0
    1340 WTU1 2313 TIP3 H1   HT     0.417000        1.0079           0
    1341 WTU1 2313 TIP3 H2   HT     0.417000        1.0079           0
    1342 WTU1 2314 TIP3 OH2  OT    -0.834000       15.9994           0
    1343 WTU1 2314 TIP3 H1   HT     0.417000        1.0079           0
    1344 WTU1 2314 TIP3 H2   HT     0.417000        1.0079           0
    1345 WTU1 2316 TIP3 OH2  OT    -0.834000       15.9994           0
    1346 WTU1 2316 TIP3 H1   HT     0.417000        1.0079           0
    1347 WTU1 2316 TIP3 H2   HT     0.417000        1.0079           0
    1348 WTU1 2318 TIP3 OH2  OT    -0.834000       15.9994           0
    1349 WTU1 2318 TIP3 H1   HT     0.417000        1.0079           0
    1350 WTU1 2318 TIP3 H2   HT     0.417000        1.0079           0
    1351 WTU1 2329 TIP3 OH2  OT    -0.834000       15.9994           0
    1352 WTU1 2329 TIP3 H1   HT     0.417000        1.0079           0
    1353 WTU1 2329 TIP3 H2   HT     0.417000        1.0079           0
    1354 WTU1 2331 TIP3 OH2  OT    -0.834000       15.9994           0
    1355 WTU1 2331 TIP3 H1   HT     0.417000        1.0079           0
    1356 WTU1 2331 TIP3 H2   HT     0.417000        1.0079           0
    1357 WTU1 2332 TIP3 OH2  OT    -0.834000       15.9994           0
    1358 WTU1 2332 TIP3 H1   HT     0.417000        1.0079           0
    1359 WTU1 2332 TIP3 H2   HT     0.417000        1.0079           0
    1360 WTU1 2333 TIP3 OH2  OT    -0.834000       15.9994           0
    1361 WTU1 2333 TIP3 H1   HT     0.417000        1.0079           0
    1362 WTU1 2333 TIP3 H2   HT     0.417000        1.0079           0
    1363 WTU1 2336 TIP3 OH2  OT    -0.834000       15.9994           0
    1364 WTU1 2336 TIP3 H1   HT     0.417000        1.0079           0
    1365 WTU1 2336 TIP3 H2   HT     0.417000        1.0079           0
    1366 WTU1 2338 TIP3 OH2  OT    -0.834000       15.9994           0
    1367 WTU1 2338 TIP3 H1   HT     0.417000        1.0079           0
    1368 WTU1 2338 TIP3 H2   HT     0.417000        1.0079           0
    1369 WTU1 2351 TIP3 OH2  OT    -0.834000       15.9994           0
    1370 WTU1 2351 TIP3 H1   HT     0.417000        1.0079           0
    1371 WTU1 2351 TIP3 H2   HT     0.417000        1.0079           0
    1372 WTU1 2352 TIP3 OH2  OT    -0.834000       15.9994           0
    1373 WTU1 2352 TIP3 H1   HT     0.417000        1.0079           0
    1374 WTU1 2352 TIP3 H2   HT     0.417000        1.0079           0
    1375 WTU1 2354 TIP3 OH2  OT    -0.834000       15.9994           0
    1376 WTU1 2354 TIP3 H1   HT     0.417000        1.0079           0
    1377 WTU1 2354 TIP3 H2   HT     0.417000        1.0079           0
    1378 WTU1 2355 TIP3 OH2  OT    -0.834000       15.9994           0
    1379 WTU1 2355 TIP3 H1   HT     0.417000        1.0079           0
    1380 WTU1 2355 TIP3 H2   HT     0.417000        1.0079           0
    1381 WTU1 2357 TIP3 OH2  OT    -0.834000       15.9994           0
    1382 WTU1 2357 TIP3 H1   HT     0.417000        1.0079           0
    1383 WTU1 2357 TIP3 H2   HT     0.417000        1.0079           0
    1384 WTU1 2358 TIP3 OH2  OT    -0.834000       15.9994           0
    1385 WTU1 2358 TIP3 H1   HT     0.417000        1.0079           0
    1386 WTU1 2358 TIP3 H2   HT     0.417000        1.0079           0
    1387 WTU1 2359 TIP3 OH2  OT    -0.834000       15.9994           0
    1388 WTU1 2359 TIP3 H1   HT     0.417000        1.0079           0
    1389 WTU1 2359 TIP3 H2   HT     0.417000        1.0079           0
    1390 WTU1 2376 TIP3 OH2  OT    -0.834000       15.9994           0
    1391 WTU1 2376 TIP3 H1   HT     0.417000        1.0079           0
    1392 WTU1 2376 TIP3 H2   HT     0.417000        1.0079           0
    1393 WTU1 2377 TIP3 OH2  OT    -0.834000       15.9994           0
    1394 WTU1 2377 TIP3 H1   HT     0.417000        1.0079           0
    1395 WTU1 2377 TIP3 H2   HT     0.417000        1.0079           0
    1396 WTU1 2380 TIP3 OH2  OT    -0.834000       15.9994           0
    1397 WTU1 2380 TIP3 H1   HT     0.417000        1.0079           0
    1398 WTU1 2380 TIP3 H2   HT     0.417000        1.0079           0
    1399 WTU1 2397 TIP3 OH2  OT    -0.834000       15.9994           0
    1400 WTU1 2397 TIP3 H1   HT     0.417000        1.0079           0
    1401 WTU1 2397 TIP3 H2   HT     0.417000        1.0079           0
    1402 WTU1 2416 TIP3 OH2  OT    -0.834000       15.9994           0
    1403 WTU1 2416 TIP3 H1   HT     0.417000        1.0079           0
    1404 WTU1 2416 TIP3 H2   HT     0.417000        1.0079           0
    1405 WTU1 2417 TIP3 OH2  OT    -0.834000       15.9994           0
    1406 WTU1 2417 TIP3 H1   HT     0.417000        1.0079           0
    1407 WTU1 2417 TIP3 H2   HT     0.417000        1.0079           0
    1408 WTU1 2419 TIP3 OH2  OT    -0.834000       15.9994           0
    1409 WTU1 2419 TIP3 H1   HT     0.417000        1.0079           0
    1410 WTU1 2419 TIP3 H2   HT     0.417000        1.0079           0
    1411 WTU1 2421 TIP3 OH2  OT    -0.834000       15.9994           0
    1412 WTU1 2421 TIP3 H1   HT     0.417000        1.0079           0
    1413 WTU1 2421 TIP3 H2   HT     0.417000        1.0079           0
    1414 WTU1 2423 TIP3 OH2  OT    -0.834000       15.9994           0
    1415 WTU1 2423 TIP3 H1   HT     0.417000        1.0079           0
    1416 WTU1 2423 TIP3 H2   HT     0.417000        1.0079           0
    1417 WTU1 2436 TIP3 OH2  OT    -0.834000       15.9994           0
    1418 WTU1 2436 TIP3 H1   HT     0.417000        1.0079           0
    1419 WTU1 2436 TIP3 H2   HT     0.417000        1.0079           0
    1420 WTU1 2438 TIP3 OH2  OT    -0.834000       15.9994           0
    1421 WTU1 2438 TIP3 H1   HT     0.417000        1.0079           0
    1422 WTU1 2438 TIP3 H2   HT     0.417000        1.0079           0
    1423 WTU1 2440 TIP3 OH2  OT    -0.834000       15.9994           0
    1424 WTU1 2440 TIP3 H1   HT     0.417000        1.0079           0
    1425 WTU1 2440 TIP3 H2   HT     0.417000        1.0079           0
    1426 WTU1 2441 TIP3 OH2  OT    -0.834000       15.9994           0
    1427 WTU1 2441 TIP3 H1   HT     0.417000        1.0079           0
    1428 WTU1 2441 TIP3 H2   HT     0.417000        1.0079           0
    1429 WTU1 2458 TIP3 OH2  OT    -0.834000       15.9994           0
    1430 WTU1 2458 TIP3 H1   HT     0.417000        1.0079           0
    1431 WTU1 2458 TIP3 H2   HT     0.417000        1.0079           0
    1432 WTU1 2459 TIP3 OH2  OT    -0.834000       15.9994           0
    1433 WTU1 2459 TIP3 H1   HT     0.417000        1.0079           0
    1434 WTU1 2459 TIP3 H2   HT     0.417000        1.0079           0
    1435 WTU1 2460 TIP3 OH2  OT    -0.834000       15.9994           0
    1436 WTU1 2460 TIP3 H1   HT     0.417000        1.0079           0
    1437 WTU1 2460 TIP3 H2   HT     0.417000        1.0079           0
    1438 WTU1 2461 TIP3 OH2  OT    -0.834000       15.9994           0
    1439 WTU1 2461 TIP3 H1   HT     0.417000        1.0079           0
    1440 WTU1 2461 TIP3 H2   HT     0.417000        1.0079           0
    1441 WTU1 2482 TIP3 OH2  OT    -0.834000       15.9994           0
    1442 WTU1 2482 TIP3 H1   HT     0.417000        1.0079           0
    1443 WTU1 2482 TIP3 H2   HT     0.417000        1.0079           0
    1444 WTU1 2483 TIP3 OH2  OT    -0.834000       15.9994           0
    1445 WTU1 2483 TIP3 H1   HT     0.417000        1.0079           0
    1446 WTU1 2483 TIP3 H2   HT     0.417000        1.0079           0
    1447 WTU1 2499 TIP3 OH2  OT    -0.834000       15.9994           0
    1448 WTU1 2499 TIP3 H1   HT     0.417000        1.0079           0
    1449 WTU1 2499 TIP3 H2   HT     0.417000        1.0079           0
    1450 WTU1 2503 TIP3 OH2  OT    -0.834000       15.9994           0
    1451 WTU1 2503 TIP3 H1   HT     0.417000        1.0079           0
    1452 WTU1 2503 TIP3 H2   HT     0.417000        1.0079           0
    1453 WTU1 2519 TIP3 OH2  OT    -0.834000       15.9994           0
    1454 WTU1 2519 TIP3 H1   HT     0.417000        1.0079           0
    1455 WTU1 2519 TIP3 H2   HT     0.417000        1.0079           0
    1456 WTU1 2522 TIP3 OH2  OT    -0.834000       15.9994           0
    1457 WTU1 2522 TIP3 H1   HT     0.417000        1.0079           0
    1458 WTU1 2522 TIP3 H2   HT     0.417000        1.0079           0
    1459 WTU1 2523 TIP3 OH2  OT    -0.834000       15.9994           0
    1460 WTU1 2523 TIP3 H1   HT     0.417000        1.0079           0
    1461 WTU1 2523 TIP3 H2   HT     0.417000        1.0079           0
    1462 WTU1 2525 TIP3 OH2  OT    -0.834000       15.9994           0
    1463 WTU1 2525 TIP3 H1   HT     0.417000        1.0079           0
    1464 WTU1 2525 TIP3 H2   HT     0.417000        1.0079           0
    1465 WTU1 2526 TIP3 OH2  OT    -0.834000       15.9994           0
    1466 WTU1 2526 TIP3 H1   HT     0.417000        1.0079           0
    1467 WTU1 2526 TIP3 H2   HT     0.417000        1.0079           0
    1468 WTU1 2528 TIP3 OH2  OT    -0.834000       15.9994           0
    1469 WTU1 2528 TIP3 H1   HT     0.417000        1.0079           0
    1470 WTU1 2528 TIP3 H2   HT     0.417000        1.0079           0
    1471 WTU1 2539 TIP3 OH2  OT    -0.834000       15.9994           0
    1472 WTU1 2539 TIP3 H1   HT     0.417000        1.0079           0
    1473 WTU1 2539 TIP3 H2   HT     0.417000        1.0079           0
    1474 WTU1 2540 TIP3 OH2  OT    -0.834000       15.9994           0
    1475 WTU1 2540 TIP3 H1   HT     0.417000        1.0079           0
    1476 WTU1 2540 TIP3 H2   HT     0.417000        1.0079           0
    1477 WTU1 2541 TIP3 OH2  OT    -0.834000       15.9994           0
    1478 WTU1 2541 TIP3 H1   HT     0.417000        1.0079           0
    1479 WTU1 2541 TIP3 H2   HT     0.417000        1.0079           0
    1480 WTU1 2547 TIP3 OH2  OT    -0.834000       15.9994           0
    1481 WTU1 2547 TIP3 H1   HT     0.417000        1.0079           0
    1482 WTU1 2547 TIP3 H2   HT     0.417000        1.0079           0
    1483 WTU1 2563 TIP3 OH2  OT    -0.834000       15.9994           0
    1484 WTU1 2563 TIP3 H1   HT     0.417000        1.0079           0
    1485 WTU1 2563 TIP3 H2   HT     0.417000        1.0079           0
    1486 WTU1 2564 TIP3 OH2  OT    -0.834000       15.9994           0
    1487 WTU1 2564 TIP3 H1   HT     0.417000        1.0079           0
    1488 WTU1 2564 TIP3 H2   HT     0.417000        1.0079           0
    1489 WTU1 2565 TIP3 OH2  OT    -0.834000       15.9994           0
    1490 WTU1 2565 TIP3 H1   HT     0.417000        1.0079           0
    1491 WTU1 2565 TIP3 H2   HT     0.417000        1.0079           0
    1492 WTU1 2580 TIP3 OH2  OT    -0.834000       15.9994           0
    1493 WTU1 2580 TIP3 H1   HT     0.417000        1.0079           0
    1494 WTU1 2580 TIP3 H2   HT     0.417000        1.0079           0
    1495 WTU1 2584 TIP3 OH2  OT    -0.834000       15.9994           0
    1496 WTU1 2584 TIP3 H1   HT     0.417000        1.0079           0
    1497 WTU1 2584 TIP3 H2   HT     0.417000        1.0079           0
    1498 WTU1 2606 TIP3 OH2  OT    -0.834000       15.9994           0
    1499 WTU1 2606 TIP3 H1   HT     0.417000        1.0079           0
    1500 WTU1 2606 TIP3 H2   HT     0.417000        1.0079           0
    1501 WTU1 2607 TIP3 OH2  OT    -0.834000       15.9994           0
    1502 WTU1 2607 TIP3 H1   HT     0.417000        1.0079           0
    1503 WTU1 2607 TIP3 H2   HT     0.417000        1.0079           0
    1504 WTU1 2608 TIP3 OH2  OT    -0.834000       15.9994           0
    1505 WTU1 2608 TIP3 H1   HT     0.417000        1.0079           0
    1506 WTU1 2608 TIP3 H2   HT     0.417000        1.0079           0
    1507 WTU1 2610 TIP3 OH2  OT    -0.834000       15.9994           0
    1508 WTU1 2610 TIP3 H1   HT     0.417000        1.0079           0
    1509 WTU1 2610 TIP3 H2   HT     0.417000        1.0079           0
    1510 WTU1 2628 TIP3 OH2  OT    -0.834000       15.9994           0
    1511 WTU1 2628 TIP3 H1   HT     0.417000        1.0079           0
    1512 WTU1 2628 TIP3 H2   HT     0.417000        1.0079           0
    1513 WTU1 2631 TIP3 OH2  OT    -0.834000       15.9994           0
    1514 WTU1 2631 TIP3 H1   HT     0.417000        1.0079           0
    1515 WTU1 2631 TIP3 H2   HT     0.417000        1.0079           0
    1516 WTU1 2634 TIP3 OH2  OT    -0.834000       15.9994           0
    1517 WTU1 2634 TIP3 H1   HT     0.417000        1.0079           0
    1518 WTU1 2634 TIP3 H2   HT     0.417000        1.0079           0
    1519 WTU1 2648 TIP3 OH2  OT    -0.834000       15.9994           0
    1520 WTU1 2648 TIP3 H1   HT     0.417000        1.0079           0
    1521 WTU1 2648 TIP3 H2   HT     0.417000        1.0079           0
    1522 WTU1 2649 TIP3 OH2  OT    -0.834000       15.9994           0
    1523 WTU1 2649 TIP3 H1   HT     0.417000        1.0079           0
    1524 WTU1 2649 TIP3 H2   HT     0.417000        1.0079           0
    1525 WTU1 2650 TIP3 OH2  OT    -0.834000       15.9994           0
    1526 WTU1 2650 TIP3 H1   HT     0.417000        1.0079           0
    1527 WTU1 2650 TIP3 H2   HT     0.417000        1.0079           0
    1528 WTU1 2653 TIP3 OH2  OT    -0.834000       15.9994           0
    1529 WTU1 2653 TIP3 H1   HT     0.417000        1.0079           0
    1530 WTU1 2653 TIP3 H2   HT     0.417000        1.0079           0
    1531 WTU1 2654 TIP3 OH2  OT    -0.834000       15.9994           0
    1532 WTU1 2654 TIP3 H1   HT     0.417000        1.0079           0
    1533 WTU1 2654 TIP3 H2   HT     0.417000        1.0079           0
    1534 WTU1 2668 TIP3 OH2  OT    -0.834000       15.9994           0
    1535 WTU1 2668 TIP3 H1   HT     0.417000        1.0079           0
    1536 WTU1 2668 TIP3 H2   HT     0.417000        1.0079           0
    1537 WTU1 2669 TIP3 OH2  OT    -0.834000       15.9994           0
    1538 WTU1 2669 TIP3 H1   HT     0.417000        1.0079           0
    1539 WTU1 2669 TIP3 H2   HT     0.417000        1.0079           0
    1540 WTU1 2689 TIP3 OH2  OT    -0.834000       15.9994           0
    1541 WTU1 2689 TIP3 H1   HT     0.417000        1.0079           0
    1542 WTU1 2689 TIP3 H2   HT     0.417000        1.0079           0
    1543 WTU1 2690 TIP3 OH2  OT    -0.834000       15.9994           0
    1544 WTU1 2690 TIP3 H1   HT     0.417000        1.0079           0
    1545 WTU1 2690 TIP3 H2   HT     0.417000        1.0079           0
    1546 WTU1 2692 TIP3 OH2  OT    -0.834000       15.9994           0
    1547 WTU1 2692 TIP3 H1   HT     0.417000        1.0079           0
    1548 WTU1 2692 TIP3 H2   HT     0.417000        1.0079           0
    1549 WTU1 2709 TIP3 OH2  OT    -0.834000       15.9994           0
    1550 WTU1 2709 TIP3 H1   HT     0.417000        1.0079           0
    1551 WTU1 2709 TIP3 H2   HT     0.417000        1.0079           0
    1552 WTU1 2710 TIP3 OH2  OT    -0.834000       15.9994           0
    1553 WTU1 2710 TIP3 H1   HT     0.417000        1.0079           0
    1554 WTU1 2710 TIP3 H2   HT     0.417000        1.0079           0
    1555 WTU1 2713 TIP3 OH2  OT    -0.834000       15.9994           0
    1556 WTU1 2713 TIP3 H1   HT     0.417000        1.0079           0
    1557 WTU1 2713 TIP3 H2   HT     0.417000        1.0079           0
    1558 WTU1 2715 TIP3 OH2  OT    -0.834000       15.9994           0
    1559 WTU1 2715 TIP3 H1   HT     0.417000        1.0079           0
    1560 WTU1 2715 TIP3 H2   HT     0.417000        1.0079           0
    1561 WTU1 2732 TIP3 OH2  OT    -0.834000       15.9994           0
    1562 WTU1 2732 TIP3 H1   HT     0.417000        1.0079           0
    1563 WTU1 2732 TIP3 H2   HT     0.417000        1.0079           0
    1564 WTU1 2734 TIP3 OH2  OT    -0.834000       15.9994           0
    1565 WTU1 2734 TIP3 H1   HT     0.417000        1.0079           0
    1566 WTU1 2734 TIP3 H2   HT     0.417000        1.0079           0
    1567 WTU1 2735 TIP3 OH2  OT    -0.834000       15.9994           0
    1568 WTU1 2735 TIP3 H1   HT     0.417000        1.0079           0
    1569 WTU1 2735 TIP3 H2   HT     0.417000        1.0079           0
    1570 WTU1 2736 TIP3 OH2  OT    -0.834000       15.9994           0
    1571 WTU1 2736 TIP3 H1   HT     0.417000        1.0079           0
    1572 WTU1 2736 TIP3 H2   HT     0.417000        1.0079           0
    1573 WTU1 2753 TIP3 OH2  OT    -0.834000       15.9994           0
    1574 WTU1 2753 TIP3 H1   HT     0.417000        1.0079           0
    1575 WTU1 2753 TIP3 H2   HT     0.417000        1.0079           0
    1576 WTU1 2754 TIP3 OH2  OT    -0.834000       15.9994           0
    1577 WTU1 2754 TIP3 H1   HT     0.417000        1.0079           0
    1578 WTU1 2754 TIP3 H2   HT     0.417000        1.0079           0
    1579 WTU1 2771 TIP3 OH2  OT    -0.834000       15.9994           0
    1580 WTU1 2771 TIP3 H1   HT     0.417000        1.0079           0
    1581 WTU1 2771 TIP3 H2   HT     0.417000        1.0079           0
    1582 WTU1 2774 TIP3 OH2  OT    -0.834000       15.9994           0
    1583 WTU1 2774 TIP3 H1   HT     0.417000        1.0079           0
    1584 WTU1 2774 TIP3 H2   HT     0.417000        1.0079           0
    1585 WTU1 2775 TIP3 OH2  OT    -0.834000       15.9994           0
    1586 WTU1 2775 TIP3 H1   HT     0.417000        1.0079           0
    1587 WTU1 2775 TIP3 H2   HT     0.417000        1.0079           0
    1588 WTU1 2777 TIP3 OH2  OT    -0.834000       15.9994           0
    1589 WTU1 2777 TIP3 H1   HT     0.417000        1.0079           0
    1590 WTU1 2777 TIP3 H2   HT     0.417000        1.0079           0
    1591 WTU1 2781 TIP3 OH2  OT    -0.834000       15.9994           0
    1592 WTU1 2781 TIP3 H1   HT     0.417000        1.0079           0
    1593 WTU1 2781 TIP3 H2   HT     0.417000        1.0079           0
    1594 WTU1 2794 TIP3 OH2  OT    -0.834000       15.9994           0
    1595 WTU1 2794 TIP3 H1   HT     0.417000        1.0079           0
    1596 WTU1 2794 TIP3 H2   HT     0.417000        1.0079           0
    1597 WTU1 2795 TIP3 OH2  OT    -0.834000       15.9994           0
    1598 WTU1 2795 TIP3 H1   HT     0.417000        1.0079           0
    1599 WTU1 2795 TIP3 H2   HT     0.417000        1.0079           0
    1600 WTU1 2796 TIP3 OH2  OT    -0.834000       15.9994           0
    1601 WTU1 2796 TIP3 H1   HT     0.417000        1.0079           0
    1602 WTU1 2796 TIP3 H2   HT     0.417000        1.0079           0
    1603 WTU1 2798 TIP3 OH2  OT    -0.834000       15.9994           0
    1604 WTU1 2798 TIP3 H1   HT     0.417000        1.0079           0
    1605 WTU1 2798 TIP3 H2   HT     0.417000        1.0079           0
    1606 WTU1 2814 TIP3 OH2  OT    -0.834000       15.9994           0
    1607 WTU1 2814 TIP3 H1   HT     0.417000        1.0079           0
    1608 WTU1 2814 TIP3 H2   HT     0.417000        1.0079           0
    1609 WTU1 2815 TIP3 OH2  OT    -0.834000       15.9994           0
    1610 WTU1 2815 TIP3 H1   HT     0.417000        1.0079           0
    1611 WTU1 2815 TIP3 H2   HT     0.417000        1.0079           0
    1612 WTU1 2819 TIP3 OH2  OT    -0.834000       15.9994           0
    1613 WTU1 2819 TIP3 H1   HT     0.417000        1.0079           0
    1614 WTU1 2819 TIP3 H2   HT     0.417000        1.0079           0
    1615 WTU1 2832 TIP3 OH2  OT    -0.834000       15.9994           0
    1616 WTU1 2832 TIP3 H1   HT     0.417000        1.0079           0
    1617 WTU1 2832 TIP3 H2   HT     0.417000        1.0079           0
    1618 WTU1 2838 TIP3 OH2  OT    -0.834000       15.9994           0
    1619 WTU1 2838 TIP3 H1   HT     0.417000        1.0079           0
    1620 WTU1 2838 TIP3 H2   HT     0.417000        1.0079           0
    1621 WTU1 2857 TIP3 OH2  OT    -0.834000       15.9994           0
    1622 WTU1 2857 TIP3 H1   HT     0.417000        1.0079           0
    1623 WTU1 2857 TIP3 H2   HT     0.417000        1.0079           0
    1624 WTU1 2859 TIP3 OH2  OT    -0.834000       15.9994           0
    1625 WTU1 2859 TIP3 H1   HT     0.417000        1.0079           0
    1626 WTU1 2859 TIP3 H2   HT     0.417000        1.0079           0
    1627 WTU1 2877 TIP3 OH2  OT    -0.834000       15.9994           0
    1628 WTU1 2877 TIP3 H1   HT     0.417000        1.0079           0
    1629 WTU1 2877 TIP3 H2   HT     0.417000        1.0079           0
    1630 WTU1 2878 TIP3 OH2  OT    -0.834000       15.9994           0
    1631 WTU1 2878 TIP3 H1   HT     0.417000        1.0079           0
    1632 WTU1 2878 TIP3 H2   HT     0.417000        1.0079           0
    1633 WTU1 2884 TIP3 OH2  OT    -0.834000       15.9994           0
    1634 WTU1 2884 TIP3 H1   HT     0.417000        1.0079           0
    1635 WTU1 2884 TIP3 H2   HT     0.417000        1.0079           0
    1636 WTU1 2900 TIP3 OH2  OT    -0.834000       15.9994           0
    1637 WTU1 2900 TIP3 H1   HT     0.417000        1.0079           0
    1638 WTU1 2900 TIP3 H2   HT     0.417000        1.0079           0
    1639 WTU1 2902 TIP3 OH2  OT    -0.834000       15.9994           0
    1640 WTU1 2902 TIP3 H1   HT     0.417000        1.0079           0
    1641 WTU1 2902 TIP3 H2   HT     0.417000        1.0079           0
    1642 WTU1 2903 TIP3 OH2  OT    -0.834000       15.9994           0
    1643 WTU1 2903 TIP3 H1   HT     0.417000        1.0079           0
    1644 WTU1 2903 TIP3 H2   HT     0.417000        1.0079           0
    1645 WTU1 2918 TIP3 OH2  OT    -0.834000       15.9994           0
    1646 WTU1 2918 TIP3 H1   HT     0.417000        1.0079           0
    1647 WTU1 2918 TIP3 H2   HT     0.417000        1.0079           0
    1648 WTU1 2919 TIP3 OH2  OT    -0.834000       15.9994           0
    1649 WTU1 2919 TIP3 H1   HT     0.417000        1.0079           0
    1650 WTU1 2919 TIP3 H2   HT     0.417000        1.0079           0
    1651 WTU1 2920 TIP3 OH2  OT    -0.834000       15.9994           0
    1652 WTU1 2920 TIP3 H1   HT     0.417000        1.0079           0
    1653 WTU1 2920 TIP3 H2   HT     0.417000        1.0079           0
    1654 WTU1 2923 TIP3 OH2  OT    -0.834000       15.9994           0
    1655 WTU1 2923 TIP3 H1   HT     0.417000        1.0079           0
    1656 WTU1 2923 TIP3 H2   HT     0.417000        1.0079           0
    1657 WTU1 2925 TIP3 OH2  OT    -0.834000       15.9994           0
    1658 WTU1 2925 TIP3 H1   HT     0.417000        1.0079           0
    1659 WTU1 2925 TIP3 H2   HT     0.417000        1.0079           0
    1660 WTU1 2927 TIP3 OH2  OT    -0.834000       15.9994           0
    1661 WTU1 2927 TIP3 H1   HT     0.417000        1.0079           0
    1662 WTU1 2927 TIP3 H2   HT     0.417000        1.0079           0
    1663 WTU1 2938 TIP3 OH2  OT    -0.834000       15.9994           0
    1664 WTU1 2938 TIP3 H1   HT     0.417000        1.0079           0
    1665 WTU1 2938 TIP3 H2   HT     0.417000        1.0079           0
    1666 WTU1 2941 TIP3 OH2  OT    -0.834000       15.9994           0
    1667 WTU1 2941 TIP3 H1   HT     0.417000        1.0079           0
    1668 WTU1 2941 TIP3 H2   HT     0.417000        1.0079           0
    1669 WTU1 2944 TIP3 OH2  OT    -0.834000       15.9994           0
    1670 WTU1 2944 TIP3 H1   HT     0.417000        1.0079           0
    1671 WTU1 2944 TIP3 H2   HT     0.417000        1.0079           0
    1672 WTU1 2945 TIP3 OH2  OT    -0.834000       15.9994           0
    1673 WTU1 2945 TIP3 H1   HT     0.417000        1.0079           0
    1674 WTU1 2945 TIP3 H2   HT     0.417000        1.0079           0
    1675 WTU1 2960 TIP3 OH2  OT    -0.834000       15.9994           0
    1676 WTU1 2960 TIP3 H1   HT     0.417000        1.0079           0
    1677 WTU1 2960 TIP3 H2   HT     0.417000        1.0079           0
    1678 WTU1 2961 TIP3 OH2  OT    -0.834000       15.9994           0
    1679 WTU1 2961 TIP3 H1   HT     0.417000        1.0079           0
    1680 WTU1 2961 TIP3 H2   HT     0.417000        1.0079           0
    1681 WTU1 2963 TIP3 OH2  OT    -0.834000       15.9994           0
    1682 WTU1 2963 TIP3 H1   HT     0.417000        1.0079           0
    1683 WTU1 2963 TIP3 H2   HT     0.417000        1.0079           0
    1684 WTU1 2964 TIP3 OH2  OT    -0.834000       15.9994           0
    1685 WTU1 2964 TIP3 H1   HT     0.417000        1.0079           0
    1686 WTU1 2964 TIP3 H2   HT     0.417000        1.0079           0
    1687 WTU1 2967 TIP3 OH2  OT    -0.834000       15.9994           0
    1688 WTU1 2967 TIP3 H1   HT     0.417000        1.0079           0
    1689 WTU1 2967 TIP3 H2   HT     0.417000        1.0079           0
    1690 WTU1 2979 TIP3 OH2  OT    -0.834000       15.9994           0
    1691 WTU1 2979 TIP3 H1   HT     0.417000        1.0079           0
    1692 WTU1 2979 TIP3 H2   HT     0.417000        1.0079           0
    1693 WTU1 2981 TIP3 OH2  OT    -0.834000       15.9994           0
    1694 WTU1 2981 TIP3 H1   HT     0.417000        1.0079           0
    1695 WTU1 2981 TIP3 H2   HT     0.417000        1.0079           0
    1696 WTU1 2983 TIP3 OH2  OT    -0.834000       15.9994           0
    1697 WTU1 2983 TIP3 H1   HT     0.417000        1.0079           0
    1698 WTU1 2983 TIP3 H2   HT     0.417000        1.0079           0
    1699 WTU1 2984 TIP3 OH2  OT    -0.834000       15.9994           0
    1700 WTU1 2984 TIP3 H1   HT     0.417000        1.0079           0
    1701 WTU1 2984 TIP3 H2   HT     0.417000        1.0079           0
    1702 WTU1 2986 TIP3 OH2  OT    -0.834000       15.9994           0
    1703 WTU1 2986 TIP3 H1   HT     0.417000        1.0079           0
    1704 WTU1 2986 TIP3 H2   HT     0.417000        1.0079           0
    1705 WTU1 3002 TIP3 OH2  OT    -0.834000       15.9994           0
    1706 WTU1 3002 TIP3 H1   HT     0.417000        1.0079           0
    1707 WTU1 3002 TIP3 H2   HT     0.417000        1.0079           0
    1708 WTU1 3010 TIP3 OH2  OT    -0.834000       15.9994           0
    1709 WTU1 3010 TIP3 H1   HT     0.417000        1.0079           0
    1710 WTU1 3010 TIP3 H2   HT     0.417000        1.0079           0
    1711 WTU1 3013 TIP3 OH2  OT    -0.834000       15.9994           0
    1712 WTU1 3013 TIP3 H1   HT     0.417000        1.0079           0
    1713 WTU1 3013 TIP3 H2   HT     0.417000        1.0079           0
    1714 WTU1 3018 TIP3 OH2  OT    -0.834000       15.9994           0
    1715 WTU1 3018 TIP3 H1   HT     0.417000        1.0079           0
    1716 WTU1 3018 TIP3 H2   HT     0.417000        1.0079           0
    1717 WTU1 3029 TIP3 OH2  OT    -0.834000       15.9994           0
    1718 WTU1 3029 TIP3 H1   HT     0.417000        1.0079           0
    1719 WTU1 3029 TIP3 H2   HT     0.417000        1.0079           0
    1720 WTU1 3048 TIP3 OH2  OT    -0.834000       15.9994           0
    1721 WTU1 3048 TIP3 H1   HT     0.417000        1.0079           0
    1722 WTU1 3048 TIP3 H2   HT     0.417000        1.0079           0
    1723 WTU1 3067 TIP3 OH2  OT    -0.834000       15.9994           0
    1724 WTU1 3067 TIP3 H1   HT     0.417000        1.0079           0
    1725 WTU1 3067 TIP3 H2   HT     0.417000        1.0079           0
    1726 WTU1 3072 TIP3 OH2  OT    -0.834000       15.9994           0
    1727 WTU1 3072 TIP3 H1   HT     0.417000        1.0079           0
    1728 WTU1 3072 TIP3 H2   HT     0.417000        1.0079           0
    1729 WTU1 3073 TIP3 OH2  OT    -0.834000       15.9994           0
    1730 WTU1 3073 TIP3 H1   HT     0.417000        1.0079           0
    1731 WTU1 3073 TIP3 H2   HT     0.417000        1.0079           0
    1732 WTU1 3085 TIP3 OH2  OT    -0.834000       15.9994           0
    1733 WTU1 3085 TIP3 H1   HT     0.417000        1.0079           0
    1734 WTU1 3085 TIP3 H2   HT     0.417000        1.0079           0
    1735 WTU1 3086 TIP3 OH2  OT    -0.834000       15.9994           0
    1736 WTU1 3086 TIP3 H1   HT     0.417000        1.0079           0
    1737 WTU1 3086 TIP3 H2   HT     0.417000        1.0079           0
    1738 WTU1 3087 TIP3 OH2  OT    -0.834000       15.9994           0
    1739 WTU1 3087 TIP3 H1   HT     0.417000        1.0079           0
    1740 WTU1 3087 TIP3 H2   HT     0.417000        1.0079           0
    1741 WTU1 3088 TIP3 OH2  OT    -0.834000       15.9994           0
    1742 WTU1 3088 TIP3 H1   HT     0.417000        1.0079           0
    1743 WTU1 3088 TIP3 H2   HT     0.417000        1.0079           0
    1744 WTU1 3091 TIP3 OH2  OT    -0.834000       15.9994           0
    1745 WTU1 3091 TIP3 H1   HT     0.417000        1.0079           0
    1746 WTU1 3091 TIP3 H2   HT     0.417000        1.0079           0
    1747 WTU1 3093 TIP3 OH2  OT    -0.834000       15.9994           0
    1748 WTU1 3093 TIP3 H1   HT     0.417000        1.0079           0
    1749 WTU1 3093 TIP3 H2   HT     0.417000        1.0079           0
    1750 WTU1 3094 TIP3 OH2  OT    -0.834000       15.9994           0
    1751 WTU1 3094 TIP3 H1   HT     0.417000        1.0079           0
    1752 WTU1 3094 TIP3 H2   HT     0.417000        1.0079           0
    1753 WTU1 3108 TIP3 OH2  OT    -0.834000       15.9994           0
    1754 WTU1 3108 TIP3 H1   HT     0.417000        1.0079           0
    1755 WTU1 3108 TIP3 H2   HT     0.417000        1.0079           0
    1756 WTU1 3109 TIP3 OH2  OT    -0.834000       15.9994           0
    1757 WTU1 3109 TIP3 H1   HT     0.417000        1.0079           0
    1758 WTU1 3109 TIP3 H2   HT     0.417000        1.0079           0
    1759 WTU1 3110 TIP3 OH2  OT    -0.834000       15.9994           0
    1760 WTU1 3110 TIP3 H1   HT     0.417000        1.0079           0
    1761 WTU1 3110 TIP3 H2   HT     0.417000        1.0079           0
    1762 WTU1 3111 TIP3 OH2  OT    -0.834000       15.9994           0
    1763 WTU1 3111 TIP3 H1   HT     0.417000        1.0079           0
    1764 WTU1 3111 TIP3 H2   HT     0.417000        1.0079           0
    1765 WTU1 3112 TIP3 OH2  OT    -0.834000       15.9994           0
    1766 WTU1 3112 TIP3 H1   HT     0.417000        1.0079           0
    1767 WTU1 3112 TIP3 H2   HT     0.417000        1.0079           0
    1768 WTU1 3115 TIP3 OH2  OT    -0.834000       15.9994           0
    1769 WTU1 3115 TIP3 H1   HT     0.417000        1.0079           0
    1770 WTU1 3115 TIP3 H2   HT     0.417000        1.0079           0
    1771 WTU1 3128 TIP3 OH2  OT    -0.834000       15.9994           0
    1772 WTU1 3128 TIP3 H1   HT     0.417000        1.0079           0
    1773 WTU1 3128 TIP3 H2   HT     0.417000        1.0079           0
    1774 WTU1 3129 TIP3 OH2  OT    -0.834000       15.9994           0
    1775 WTU1 3129 TIP3 H1   HT     0.417000        1.0079           0
    1776 WTU1 3129 TIP3 H2   HT     0.417000        1.0079           0
    1777 WTU1 3131 TIP3 OH2  OT    -0.834000       15.9994           0
    1778 WTU1 3131 TIP3 H1   HT     0.417000        1.0079           0
    1779 WTU1 3131 TIP3 H2   HT     0.417000        1.0079           0
    1780 WTU1 3150 TIP3 OH2  OT    -0.834000       15.9994           0
    1781 WTU1 3150 TIP3 H1   HT     0.417000        1.0079           0
    1782 WTU1 3150 TIP3 H2   HT     0.417000        1.0079           0
    1783 WTU1 3152 TIP3 OH2  OT    -0.834000       15.9994           0
    1784 WTU1 3152 TIP3 H1   HT     0.417000        1.0079           0
    1785 WTU1 3152 TIP3 H2   HT     0.417000        1.0079           0
    1786 WTU1 3153 TIP3 OH2  OT    -0.834000       15.9994           0
    1787 WTU1 3153 TIP3 H1   HT     0.417000        1.0079           0
    1788 WTU1 3153 TIP3 H2   HT     0.417000        1.0079           0
    1789 WTU1 3157 TIP3 OH2  OT    -0.834000       15.9994           0
    1790 WTU1 3157 TIP3 H1   HT     0.417000        1.0079           0
    1791 WTU1 3157 TIP3 H2   HT     0.417000        1.0079           0
    1792 WTU1 3176 TIP3 OH2  OT    -0.834000       15.9994           0
    1793 WTU1 3176 TIP3 H1   HT     0.417000        1.0079           0
    1794 WTU1 3176 TIP3 H2   HT     0.417000        1.0079           0
    1795 WTU1 3187 TIP3 OH2  OT    -0.834000       15.9994           0
    1796 WTU1 3187 TIP3 H1   HT     0.417000        1.0079           0
    1797 WTU1 3187 TIP3 H2   HT     0.417000        1.0079           0
    1798 WTU1 3192 TIP3 OH2  OT    -0.834000       15.9994           0
    1799 WTU1 3192 TIP3 H1   HT     0.417000        1.0079           0
    1800 WTU1 3192 TIP3 H2   HT     0.417000        1.0079           0
    1801 WTU1 3214 TIP3 OH2  OT    -0.834000       15.9994           0
    1802 WTU1 3214 TIP3 H1   HT     0.417000        1.0079           0
    1803 WTU1 3214 TIP3 H2   HT     0.417000        1.0079           0
    1804 WTU1 3220 TIP3 OH2  OT    -0.834000       15.9994           0
    1805 WTU1 3220 TIP3 H1   HT     0.417000        1.0079           0
    1806 WTU1 3220 TIP3 H2   HT     0.417000        1.0079           0
    1807 WTU1 3233 TIP3 OH2  OT    -0.834000       15.9994           0
    1808 WTU1 3233 TIP3 H1   HT     0.417000        1.0079           0
    1809 WTU1 3233 TIP3 H2   HT     0.417000        1.0079           0
    1810 WTU1 3234 TIP3 OH2  OT    -0.834000       15.9994           0
    1811 WTU1 3234 TIP3 H1   HT     0.417000        1.0079           0
    1812 WTU1 3234 TIP3 H2   HT     0.417000        1.0079           0
    1813 WTU1 3241 TIP3 OH2  OT    -0.834000       15.9994           0
    1814 WTU1 3241 TIP3 H1   HT     0.417000        1.0079           0
    1815 WTU1 3241 TIP3 H2   HT     0.417000        1.0079           0
    1816 WTU1 3244 TIP3 OH2  OT    -0.834000       15.9994           0
    1817 WTU1 3244 TIP3 H1   HT     0.417000        1.0079           0
    1818 WTU1 3244 TIP3 H2   HT     0.417000        1.0079           0
    1819 WTU1 3257 TIP3 OH2  OT    -0.834000       15.9994           0
    1820 WTU1 3257 TIP3 H1   HT     0.417000        1.0079           0
    1821 WTU1 3257 TIP3 H2   HT     0.417000        1.0079           0
    1822 WTU1 3258 TIP3 OH2  OT    -0.834000       15.9994           0
    1823 WTU1 3258 TIP3 H1   HT     0.417000        1.0079           0
    1824 WTU1 3258 TIP3 H2   HT     0.417000        1.0079           0
    1825 WTU1 3262 TIP3 OH2  OT    -0.834000       15.9994           0
    1826 WTU1 3262 TIP3 H1   HT     0.417000        1.0079           0
    1827 WTU1 3262 TIP3 H2   HT     0.417000        1.0079           0
    1828 WTU1 3274 TIP3 OH2  OT    -0.834000       15.9994           0
    1829 WTU1 3274 TIP3 H1   HT     0.417000        1.0079           0
    1830 WTU1 3274 TIP3 H2   HT     0.417000        1.0079           0
    1831 WTU1 3276 TIP3 OH2  OT    -0.834000       15.9994           0
    1832 WTU1 3276 TIP3 H1   HT     0.417000        1.0079           0
    1833 WTU1 3276 TIP3 H2   HT     0.417000        1.0079           0
    1834 WTU1 3277 TIP3 OH2  OT    -0.834000       15.9994           0
    1835 WTU1 3277 TIP3 H1   HT     0.417000        1.0079           0
    1836 WTU1 3277 TIP3 H2   HT     0.417000        1.0079           0
    1837 WTU1 3278 TIP3 OH2  OT    -0.834000       15.9994           0
    1838 WTU1 3278 TIP3 H1   HT     0.417000        1.0079           0
    1839 WTU1 3278 TIP3 H2   HT     0.417000        1.0079           0
    1840 WTU1 3279 TIP3 OH2  OT    -0.834000       15.9994           0
    1841 WTU1 3279 TIP3 H1   HT     0.417000        1.0079           0
    1842 WTU1 3279 TIP3 H2   HT     0.417000        1.0079           0
    1843 WTU1 3280 TIP3 OH2  OT    -0.834000       15.9994           0
    1844 WTU1 3280 TIP3 H1   HT     0.417000        1.0079           0
    1845 WTU1 3280 TIP3 H2   HT     0.417000        1.0079           0
    1846 WTU1 3282 TIP3 OH2  OT    -0.834000       15.9994           0
    1847 WTU1 3282 TIP3 H1   HT     0.417000        1.0079           0
    1848 WTU1 3282 TIP3 H2   HT     0.417000        1.0079           0
    1849 WTU1 3283 TIP3 OH2  OT    -0.834000       15.9994           0
    1850 WTU1 3283 TIP3 H1   HT     0.417000        1.0079           0
    1851 WTU1 3283 TIP3 H2   HT     0.417000        1.0079           0
    1852 WTU1 3296 TIP3 OH2  OT    -0.834000       15.9994           0
    1853 WTU1 3296 TIP3 H1   HT     0.417000        1.0079           0
    1854 WTU1 3296 TIP3 H2   HT     0.417000        1.0079           0
    1855 WTU1 3298 TIP3 OH2  OT    -0.834000       15.9994           0
    1856 WTU1 3298 TIP3 H1   HT     0.417000        1.0079           0
    1857 WTU1 3298 TIP3 H2   HT     0.417000        1.0079           0
    1858 WTU1 3301 TIP3 OH2  OT    -0.834000       15.9994           0
    1859 WTU1 3301 TIP3 H1   HT     0.417000        1.0079           0
    1860 WTU1 3301 TIP3 H2   HT     0.417000        1.0079           0
    1861 WTU1 3302 TIP3 OH2  OT    -0.834000       15.9994           0
    1862 WTU1 3302 TIP3 H1   HT     0.417000        1.0079           0
    1863 WTU1 3302 TIP3 H2   HT     0.417000        1.0079           0
    1864 WTU1 3317 TIP3 OH2  OT    -0.834000       15.9994           0
    1865 WTU1 3317 TIP3 H1   HT     0.417000        1.0079           0
    1866 WTU1 3317 TIP3 H2   HT     0.417000        1.0079           0
    1867 WTU1 3319 TIP3 OH2  OT    -0.834000       15.9994           0
    1868 WTU1 3319 TIP3 H1   HT     0.417000        1.0079           0
    1869 WTU1 3319 TIP3 H2   HT     0.417000        1.0079           0
    1870 WTU1 3320 TIP3 OH2  OT    -0.834000       15.9994           0
    1871 WTU1 3320 TIP3 H1   HT     0.417000        1.0079           0
    1872 WTU1 3320 TIP3 H2   HT     0.417000        1.0079           0
    1873 WTU1 3322 TIP3 OH2  OT    -0.834000       15.9994           0
    1874 WTU1 3322 TIP3 H1   HT     0.417000        1.0079           0
    1875 WTU1 3322 TIP3 H2   HT     0.417000        1.0079           0
    1876 WTU1 3323 TIP3 OH2  OT    -0.834000       15.9994           0
    1877 WTU1 3323 TIP3 H1   HT     0.417000        1.0079           0
    1878 WTU1 3323 TIP3 H2   HT     0.417000        1.0079           0
    1879 WTU1 3337 TIP3 OH2  OT    -0.834000       15.9994           0
    1880 WTU1 3337 TIP3 H1   HT     0.417000        1.0079           0
    1881 WTU1 3337 TIP3 H2   HT     0.417000        1.0079           0
    1882 WTU1 3341 TIP3 OH2  OT    -0.834000       15.9994           0
    1883 WTU1 3341 TIP3 H1   HT     0.417000        1.0079           0
    1884 WTU1 3341 TIP3 H2   HT     0.417000        1.0079           0
    1885 WTU1 3342 TIP3 OH2  OT    -0.834000       15.9994           0
    1886 WTU1 3342 TIP3 H1   HT     0.417000        1.0079           0
    1887 WTU1 3342 TIP3 H2   HT     0.417000        1.0079           0
    1888 WTU1 3344 TIP3 OH2  OT    -0.834000       15.9994           0
    1889 WTU1 3344 TIP3 H1   HT     0.417000        1.0079           0
    1890 WTU1 3344 TIP3 H2   HT     0.417000        1.0079           0
    1891 WTU1 3360 TIP3 OH2  OT    -0.834000       15.9994           0
    1892 WTU1 3360 TIP3 H1   HT     0.417000        1.0079           0
    1893 WTU1 3360 TIP3 H2   HT     0.417000        1.0079           0
    1894 WTU1 3361 TIP3 OH2  OT    -0.834000       15.9994           0
    1895 WTU1 3361 TIP3 H1   HT     0.417000        1.0079           0
    1896 WTU1 3361 TIP3 H2   HT     0.417000        1.0079           0
    1897 WTU1 3363 TIP3 OH2  OT    -0.834000       15.9994           0
    1898 WTU1 3363 TIP3 H1   HT     0.417000        1.0079           0
    1899 WTU1 3363 TIP3 H2   HT     0.417000        1.0079           0
    1900 WTU1 3364 TIP3 OH2  OT    -0.834000       15.9994           0
    1901 WTU1 3364 TIP3 H1   HT     0.417000        1.0079           0
    1902 WTU1 3364 TIP3 H2   HT     0.417000        1.0079           0
    1903 WTU1 3366 TIP3 OH2  OT    -0.834000       15.9994           0
    1904 WTU1 3366 TIP3 H1   HT     0.417000        1.0079           0
    1905 WTU1 3366 TIP3 H2   HT     0.417000        1.0079           0
    1906 WTU1 3381 TIP3 OH2  OT    -0.834000       15.9994           0
    1907 WTU1 3381 TIP3 H1   HT     0.417000        1.0079           0
    1908 WTU1 3381 TIP3 H2   HT     0.417000        1.0079           0
    1909 WTU1 3382 TIP3 OH2  OT    -0.834000       15.9994           0
    1910 WTU1 3382 TIP3 H1   HT     0.417000        1.0079           0
    1911 WTU1 3382 TIP3 H2   HT     0.417000        1.0079           0
    1912 WTU1 3383 TIP3 OH2  OT    -0.834000       15.9994           0
    1913 WTU1 3383 TIP3 H1   HT     0.417000        1.0079           0
    1914 WTU1 3383 TIP3 H2   HT     0.417000        1.0079           0
    1915 WTU1 3384 TIP3 OH2  OT    -0.834000       15.9994           0
    1916 WTU1 3384 TIP3 H1   HT     0.417000        1.0079           0
    1917 WTU1 3384 TIP3 H2   HT     0.417000        1.0079           0
    1918 WTU1 3402 TIP3 OH2  OT    -0.834000       15.9994           0
    1919 WTU1 3402 TIP3 H1   HT     0.417000        1.0079           0
    1920 WTU1 3402 TIP3 H2   HT     0.417000        1.0079           0
    1921 WTU1 3404 TIP3 OH2  OT    -0.834000       15.9994           0
    1922 WTU1 3404 TIP3 H1   HT     0.417000        1.0079           0
    1923 WTU1 3404 TIP3 H2   HT     0.417000        1.0079           0
    1924 WTU1 3405 TIP3 OH2  OT    -0.834000       15.9994           0
    1925 WTU1 3405 TIP3 H1   HT     0.417000        1.0079           0
    1926 WTU1 3405 TIP3 H2   HT     0.417000        1.0079           0
    1927 WTU1 3407 TIP3 OH2  OT    -0.834000       15.9994           0
    1928 WTU1 3407 TIP3 H1   HT     0.417000        1.0079           0
    1929 WTU1 3407 TIP3 H2   HT     0.417000        1.0079           0
    1930 WTU1 3408 TIP3 OH2  OT    -0.834000       15.9994           0
    1931 WTU1 3408 TIP3 H1   HT     0.417000        1.0079           0
    1932 WTU1 3408 TIP3 H2   HT     0.417000        1.0079           0
    1933 WTU1 3409 TIP3 OH2  OT    -0.834000       15.9994           0
    1934 WTU1 3409 TIP3 H1   HT     0.417000        1.0079           0
    1935 WTU1 3409 TIP3 H2   HT     0.417000        1.0079           0
    1936 WTU1 3424 TIP3 OH2  OT    -0.834000       15.9994           0
    1937 WTU1 3424 TIP3 H1   HT     0.417000        1.0079           0
    1938 WTU1 3424 TIP3 H2   HT     0.417000        1.0079           0
    1939 WTU1 3426 TIP3 OH2  OT    -0.834000       15.9994           0
    1940 WTU1 3426 TIP3 H1   HT     0.417000        1.0079           0
    1941 WTU1 3426 TIP3 H2   HT     0.417000        1.0079           0
    1942 WTU1 3427 TIP3 OH2  OT    -0.834000       15.9994           0
    1943 WTU1 3427 TIP3 H1   HT     0.417000        1.0079           0
    1944 WTU1 3427 TIP3 H2   HT     0.417000        1.0079           0
    1945 WTU1 3428 TIP3 OH2  OT    -0.834000       15.9994           0
    1946 WTU1 3428 TIP3 H1   HT     0.417000        1.0079           0
    1947 WTU1 3428 TIP3 H2   HT     0.417000        1.0079           0
    1948 WTU1 3429 TIP3 OH2  OT    -0.834000       15.9994           0
    1949 WTU1 3429 TIP3 H1   HT     0.417000        1.0079           0
    1950 WTU1 3429 TIP3 H2   HT     0.417000        1.0079           0
    1951 WTU1 3442 TIP3 OH2  OT    -0.834000       15.9994           0
    1952 WTU1 3442 TIP3 H1   HT     0.417000        1.0079           0
    1953 WTU1 3442 TIP3 H2   HT     0.417000        1.0079           0
    1954 WTU1 3444 TIP3 OH2  OT    -0.834000       15.9994           0
    1955 WTU1 3444 TIP3 H1   HT     0.417000        1.0079           0
    1956 WTU1 3444 TIP3 H2   HT     0.417000        1.0079           0
    1957 WTU1 3445 TIP3 OH2  OT    -0.834000       15.9994           0
    1958 WTU1 3445 TIP3 H1   HT     0.417000        1.0079           0
    1959 WTU1 3445 TIP3 H2   HT     0.417000        1.0079           0
    1960 WTU1 3446 TIP3 OH2  OT    -0.834000       15.9994           0
    1961 WTU1 3446 TIP3 H1   HT     0.417000        1.0079           0
    1962 WTU1 3446 TIP3 H2   HT     0.417000        1.0079           0
    1963 WTU1 3447 TIP3 OH2  OT    -0.834000       15.9994           0
    1964 WTU1 3447 TIP3 H1   HT     0.417000        1.0079           0
    1965 WTU1 3447 TIP3 H2   HT     0.417000        1.0079           0
    1966 WTU1 3450 TIP3 OH2  OT    -0.834000       15.9994           0
    1967 WTU1 3450 TIP3 H1   HT     0.417000        1.0079           0
    1968 WTU1 3450 TIP3 H2   HT     0.417000        1.0079           0
    1969 WTU1 3465 TIP3 OH2  OT    -0.834000       15.9994           0
    1970 WTU1 3465 TIP3 H1   HT     0.417000        1.0079           0
    1971 WTU1 3465 TIP3 H2   HT     0.417000        1.0079           0
    1972 WTU1 3466 TIP3 OH2  OT    -0.834000       15.9994           0
    1973 WTU1 3466 TIP3 H1   HT     0.417000        1.0079           0
    1974 WTU1 3466 TIP3 H2   HT     0.417000        1.0079           0
    1975 WTU1 3467 TIP3 OH2  OT    -0.834000       15.9994           0
    1976 WTU1 3467 TIP3 H1   HT     0.417000        1.0079           0
    1977 WTU1 3467 TIP3 H2   HT     0.417000        1.0079           0
    1978 WTU1 3470 TIP3 OH2  OT    -0.834000       15.9994           0
    1979 WTU1 3470 TIP3 H1   HT     0.417000        1.0079           0
    1980 WTU1 3470 TIP3 H2   HT     0.417000        1.0079           0
    1981 WTU1 3484 TIP3 OH2  OT    -0.834000       15.9994           0
    1982 WTU1 3484 TIP3 H1   HT     0.417000        1.0079           0
    1983 WTU1 3484 TIP3 H2   HT     0.417000        1.0079           0
    1984 WTU1 3486 TIP3 OH2  OT    -0.834000       15.9994           0
    1985 WTU1 3486 TIP3 H1   HT     0.417000        1.0079           0
    1986 WTU1 3486 TIP3 H2   HT     0.417000        1.0079           0
    1987 WTU1 3488 TIP3 OH2  OT    -0.834000       15.9994           0
    1988 WTU1 3488 TIP3 H1   HT     0.417000        1.0079           0
    1989 WTU1 3488 TIP3 H2   HT     0.417000        1.0079           0
    1990 WTU1 3490 TIP3 OH2  OT    -0.834000       15.9994           0
    1991 WTU1 3490 TIP3 H1   HT     0.417000        1.0079           0
    1992 WTU1 3490 TIP3 H2   HT     0.417000        1.0079           0
    1993 WTU1 3492 TIP3 OH2  OT    -0.834000       15.9994           0
    1994 WTU1 3492 TIP3 H1   HT     0.417000        1.0079           0
    1995 WTU1 3492 TIP3 H2   HT     0.417000        1.0079           0
    1996 WTU1 3508 TIP3 OH2  OT    -0.834000       15.9994           0
    1997 WTU1 3508 TIP3 H1   HT     0.417000        1.0079           0
    1998 WTU1 3508 TIP3 H2   HT     0.417000        1.0079           0
    1999 WTU1 3511 TIP3 OH2  OT    -0.834000       15.9994           0
    2000 WTU1 3511 TIP3 H1   HT     0.417000        1.0079           0
    2001 WTU1 3511 TIP3 H2   HT     0.417000        1.0079           0
    2002 WTU1 3512 TIP3 OH2  OT    -0.834000       15.9994           0
    2003 WTU1 3512 TIP3 H1   HT     0.417000        1.0079           0
    2004 WTU1 3512 TIP3 H2   HT     0.417000        1.0079           0
    2005 WTU1 3514 TIP3 OH2  OT    -0.834000       15.9994           0
    2006 WTU1 3514 TIP3 H1   HT     0.417000        1.0079           0
    2007 WTU1 3514 TIP3 H2   HT     0.417000        1.0079           0
    2008 WTU1 3516 TIP3 OH2  OT    -0.834000       15.9994           0
    2009 WTU1 3516 TIP3 H1   HT     0.417000        1.0079           0
    2010 WTU1 3516 TIP3 H2   HT     0.417000        1.0079           0
    2011 WTU1 3526 TIP3 OH2  OT    -0.834000       15.9994           0
    2012 WTU1 3526 TIP3 H1   HT     0.417000        1.0079           0
    2013 WTU1 3526 TIP3 H2   HT     0.417000        1.0079           0
    2014 WTU1 3527 TIP3 OH2  OT    -0.834000       15.9994           0
    2015 WTU1 3527 TIP3 H1   HT     0.417000        1.0079           0
    2016 WTU1 3527 TIP3 H2   HT     0.417000        1.0079           0
    2017 WTU1 3530 TIP3 OH2  OT    -0.834000       15.9994           0
    2018 WTU1 3530 TIP3 H1   HT     0.417000        1.0079           0
    2019 WTU1 3530 TIP3 H2   HT     0.417000        1.0079           0
    2020 WTU1 3531 TIP3 OH2  OT    -0.834000       15.9994           0
    2021 WTU1 3531 TIP3 H1   HT     0.417000        1.0079           0
    2022 WTU1 3531 TIP3 H2   HT     0.417000        1.0079           0
    2023 WTU1 3533 TIP3 OH2  OT    -0.834000       15.9994           0
    2024 WTU1 3533 TIP3 H1   HT     0.417000        1.0079           0
    2025 WTU1 3533 TIP3 H2   HT     0.417000        1.0079           0
    2026 WTU1 3534 TIP3 OH2  OT    -0.834000       15.9994           0
    2027 WTU1 3534 TIP3 H1   HT     0.417000        1.0079           0
    2028 WTU1 3534 TIP3 H2   HT     0.417000        1.0079           0
    2029 WTU1 3536 TIP3 OH2  OT    -0.834000       15.9994           0
    2030 WTU1 3536 TIP3 H1   HT     0.417000        1.0079           0
    2031 WTU1 3536 TIP3 H2   HT     0.417000        1.0079           0
    2032 WTU1 3545 TIP3 OH2  OT    -0.834000       15.9994           0
    2033 WTU1 3545 TIP3 H1   HT     0.417000        1.0079           0
    2034 WTU1 3545 TIP3 H2   HT     0.417000        1.0079           0
    2035 WTU1 3548 TIP3 OH2  OT    -0.834000       15.9994           0
    2036 WTU1 3548 TIP3 H1   HT     0.417000        1.0079           0
    2037 WTU1 3548 TIP3 H2   HT     0.417000        1.0079           0
    2038 WTU1 3550 TIP3 OH2  OT    -0.834000       15.9994           0
    2039 WTU1 3550 TIP3 H1   HT     0.417000        1.0079           0
    2040 WTU1 3550 TIP3 H2   HT     0.417000        1.0079           0
    2041 WTU1 3554 TIP3 OH2  OT    -0.834000       15.9994           0
    2042 WTU1 3554 TIP3 H1   HT     0.417000        1.0079           0
    2043 WTU1 3554 TIP3 H2   HT     0.417000        1.0079           0
    2044 WTU1 3569 TIP3 OH2  OT    -0.834000       15.9994           0
    2045 WTU1 3569 TIP3 H1   HT     0.417000        1.0079           0
    2046 WTU1 3569 TIP3 H2   HT     0.417000        1.0079           0
    2047 WTU1 3570 TIP3 OH2  OT    -0.834000       15.9994           0
    2048 WTU1 3570 TIP3 H1   HT     0.417000        1.0079           0
    2049 WTU1 3570 TIP3 H2   HT     0.417000        1.0079           0
    2050 WTU1 3572 TIP3 OH2  OT    -0.834000       15.9994           0
    2051 WTU1 3572 TIP3 H1   HT     0.417000        1.0079           0
    2052 WTU1 3572 TIP3 H2   HT     0.417000        1.0079           0
    2053 WTU1 3573 TIP3 OH2  OT    -0.834000       15.9994           0
    2054 WTU1 3573 TIP3 H1   HT     0.417000        1.0079           0
    2055 WTU1 3573 TIP3 H2   HT     0.417000        1.0079           0
    2056 WTU1 3574 TIP3 OH2  OT    -0.834000       15.9994           0
    2057 WTU1 3574 TIP3 H1   HT     0.417000        1.0079           0
    2058 WTU1 3574 TIP3 H2   HT     0.417000        1.0079           0
    2059 WTU1 3575 TIP3 OH2  OT    -0.834000       15.9994           0
    2060 WTU1 3575 TIP3 H1   HT     0.417000        1.0079           0
    2061 WTU1 3575 TIP3 H2   HT     0.417000        1.0079           0
    2062 WTU1 3591 TIP3 OH2  OT    -0.834000       15.9994           0
    2063 WTU1 3591 TIP3 H1   HT     0.417000        1.0079           0
    2064 WTU1 3591 TIP3 H2   HT     0.417000        1.0079           0
    2065 WTU1 3592 TIP3 OH2  OT    -0.834000       15.9994           0
    2066 WTU1 3592 TIP3 H1   HT     0.417000        1.0079           0
    2067 WTU1 3592 TIP3 H2   HT     0.417000        1.0079           0
    2068 WTU1 3593 TIP3 OH2  OT    -0.834000       15.9994           0
    2069 WTU1 3593 TIP3 H1   HT     0.417000        1.0079           0
    2070 WTU1 3593 TIP3 H2   HT     0.417000        1.0079           0
    2071 WTU1 3594 TIP3 OH2  OT    -0.834000       15.9994           0
    2072 WTU1 3594 TIP3 H1   HT     0.417000        1.0079           0
    2073 WTU1 3594 TIP3 H2   HT     0.417000        1.0079           0
    2074 WTU1 3595 TIP3 OH2  OT    -0.834000       15.9994           0
    2075 WTU1 3595 TIP3 H1   HT     0.417000        1.0079           0
    2076 WTU1 3595 TIP3 H2   HT     0.417000        1.0079           0
    2077 WTU1 3596 TIP3 OH2  OT    -0.834000       15.9994           0
    2078 WTU1 3596 TIP3 H1   HT     0.417000        1.0079           0
    2079 WTU1 3596 TIP3 H2   HT     0.417000        1.0079           0
    2080 WTU1 3597 TIP3 OH2  OT    -0.834000       15.9994           0
    2081 WTU1 3597 TIP3 H1   HT     0.417000        1.0079           0
    2082 WTU1 3597 TIP3 H2   HT     0.417000        1.0079           0
    2083 WTU1 3612 TIP3 OH2  OT    -0.834000       15.9994           0
    2084 WTU1 3612 TIP3 H1   HT     0.417000        1.0079           0
    2085 WTU1 3612 TIP3 H2   HT     0.417000        1.0079           0
    2086 WTU1 3614 TIP3 OH2  OT    -0.834000       15.9994           0
    2087 WTU1 3614 TIP3 H1   HT     0.417000        1.0079           0
    2088 WTU1 3614 TIP3 H2   HT     0.417000        1.0079           0
    2089 WTU1 3619 TIP3 OH2  OT    -0.834000       15.9994           0
    2090 WTU1 3619 TIP3 H1   HT     0.417000        1.0079           0
    2091 WTU1 3619 TIP3 H2   HT     0.417000        1.0079           0
    2092 WTU1 3633 TIP3 OH2  OT    -0.834000       15.9994           0
    2093 WTU1 3633 TIP3 H1   HT     0.417000        1.0079           0
    2094 WTU1 3633 TIP3 H2   HT     0.417000        1.0079           0
    2095 WTU1 3636 TIP3 OH2  OT    -0.834000       15.9994           0
    2096 WTU1 3636 TIP3 H1   HT     0.417000        1.0079           0
    2097 WTU1 3636 TIP3 H2   HT     0.417000        1.0079           0
    2098 WTU1 3638 TIP3 OH2  OT    -0.834000       15.9994           0
    2099 WTU1 3638 TIP3 H1   HT     0.417000        1.0079           0
    2100 WTU1 3638 TIP3 H2   HT     0.417000        1.0079           0
    2101 WTU1 3650 TIP3 OH2  OT    -0.834000       15.9994           0
    2102 WTU1 3650 TIP3 H1   HT     0.417000        1.0079           0
    2103 WTU1 3650 TIP3 H2   HT     0.417000        1.0079           0
    2104 WTU1 3651 TIP3 OH2  OT    -0.834000       15.9994           0
    2105 WTU1 3651 TIP3 H1   HT     0.417000        1.0079           0
    2106 WTU1 3651 TIP3 H2   HT     0.417000        1.0079           0
    2107 WTU1 3660 TIP3 OH2  OT    -0.834000       15.9994           0
    2108 WTU1 3660 TIP3 H1   HT     0.417000        1.0079           0
    2109 WTU1 3660 TIP3 H2   HT     0.417000        1.0079           0
    2110 WTU1 3674 TIP3 OH2  OT    -0.834000       15.9994           0
    2111 WTU1 3674 TIP3 H1   HT     0.417000        1.0079           0
    2112 WTU1 3674 TIP3 H2   HT     0.417000        1.0079           0
    2113 WTU1 3677 TIP3 OH2  OT    -0.834000       15.9994           0
    2114 WTU1 3677 TIP3 H1   HT     0.417000        1.0079           0
    2115 WTU1 3677 TIP3 H2   HT     0.417000        1.0079           0
    2116 WTU1 3681 TIP3 OH2  OT    -0.834000       15.9994           0
    2117 WTU1 3681 TIP3 H1   HT     0.417000        1.0079           0
    2118 WTU1 3681 TIP3 H2   HT     0.417000        1.0079           0
    2119 WTU1 3693 TIP3 OH2  OT    -0.834000       15.9994           0
    2120 WTU1 3693 TIP3 H1   HT     0.417000        1.0079           0
    2121 WTU1 3693 TIP3 H2   HT     0.417000        1.0079           0
    2122 WTU1 3697 TIP3 OH2  OT    -0.834000       15.9994           0
    2123 WTU1 3697 TIP3 H1   HT     0.417000        1.0079           0
    2124 WTU1 3697 TIP3 H2   HT     0.417000        1.0079           0
    2125 WTU1 3698 TIP3 OH2  OT    -0.834000       15.9994           0
    2126 WTU1 3698 TIP3 H1   HT     0.417000        1.0079           0
    2127 WTU1 3698 TIP3 H2   HT     0.417000        1.0079           0
    2128 WTU1 3700 TIP3 OH2  OT    -0.834000       15.9994           0
    2129 WTU1 3700 TIP3 H1   HT     0.417000        1.0079           0
    2130 WTU1 3700 TIP3 H2   HT     0.417000        1.0079           0
    2131 WTU1 3701 TIP3 OH2  OT    -0.834000       15.9994           0
    2132 WTU1 3701 TIP3 H1   HT     0.417000        1.0079           0
    2133 WTU1 3701 TIP3 H2   HT     0.417000        1.0079           0
    2134 WTU1 3718 TIP3 OH2  OT    -0.834000       15.9994           0
    2135 WTU1 3718 TIP3 H1   HT     0.417000        1.0079           0
    2136 WTU1 3718 TIP3 H2   HT     0.417000        1.0079           0
    2137 WTU1 3719 TIP3 OH2  OT    -0.834000       15.9994           0
    2138 WTU1 3719 TIP3 H1   HT     0.417000        1.0079           0
    2139 WTU1 3719 TIP3 H2   HT     0.417000        1.0079           0
    2140 WTU1 3720 TIP3 OH2  OT    -0.834000       15.9994           0
    2141 WTU1 3720 TIP3 H1   HT     0.417000        1.0079           0
    2142 WTU1 3720 TIP3 H2   HT     0.417000        1.0079           0
    2143 WTU1 3722 TIP3 OH2  OT    -0.834000       15.9994           0
    2144 WTU1 3722 TIP3 H1   HT     0.417000        1.0079           0
    2145 WTU1 3722 TIP3 H2   HT     0.417000        1.0079           0
    2146 WTU1 3723 TIP3 OH2  OT    -0.834000       15.9994           0
    2147 WTU1 3723 TIP3 H1   HT     0.417000        1.0079           0
    2148 WTU1 3723 TIP3 H2   HT     0.417000        1.0079           0
    2149 WTU1 3737 TIP3 OH2  OT    -0.834000       15.9994           0
    2150 WTU1 3737 TIP3 H1   HT     0.417000        1.0079           0
    2151 WTU1 3737 TIP3 H2   HT     0.417000        1.0079           0
    2152 WTU1 3740 TIP3 OH2  OT    -0.834000       15.9994           0
    2153 WTU1 3740 TIP3 H1   HT     0.417000        1.0079           0
    2154 WTU1 3740 TIP3 H2   HT     0.417000        1.0079           0
    2155 WTU1 3757 TIP3 OH2  OT    -0.834000       15.9994           0
    2156 WTU1 3757 TIP3 H1   HT     0.417000        1.0079           0
    2157 WTU1 3757 TIP3 H2   HT     0.417000        1.0079           0
    2158 WTU1 3758 TIP3 OH2  OT    -0.834000       15.9994           0
    2159 WTU1 3758 TIP3 H1   HT     0.417000        1.0079           0
    2160 WTU1 3758 TIP3 H2   HT     0.417000        1.0079           0
    2161 WTU1 3762 TIP3 OH2  OT    -0.834000       15.9994           0
    2162 WTU1 3762 TIP3 H1   HT     0.417000        1.0079           0
    2163 WTU1 3762 TIP3 H2   HT     0.417000        1.0079           0
    2164 WTU1 3763 TIP3 OH2  OT    -0.834000       15.9994           0
    2165 WTU1 3763 TIP3 H1   HT     0.417000        1.0079           0
    2166 WTU1 3763 TIP3 H2   HT     0.417000        1.0079           0
    2167 WTU1 3764 TIP3 OH2  OT    -0.834000       15.9994           0
    2168 WTU1 3764 TIP3 H1   HT     0.417000        1.0079           0
    2169 WTU1 3764 TIP3 H2   HT     0.417000        1.0079           0
    2170 WTU1 3776 TIP3 OH2  OT    -0.834000       15.9994           0
    2171 WTU1 3776 TIP3 H1   HT     0.417000        1.0079           0
    2172 WTU1 3776 TIP3 H2   HT     0.417000        1.0079           0
    2173 WTU1 3783 TIP3 OH2  OT    -0.834000       15.9994           0
    2174 WTU1 3783 TIP3 H1   HT     0.417000        1.0079           0
    2175 WTU1 3783 TIP3 H2   HT     0.417000        1.0079           0
    2176 WTU1 3785 TIP3 OH2  OT    -0.834000       15.9994           0
    2177 WTU1 3785 TIP3 H1   HT     0.417000        1.0079           0
    2178 WTU1 3785 TIP3 H2   HT     0.417000        1.0079           0
    2179 WTU1 3798 TIP3 OH2  OT    -0.834000       15.9994           0
    2180 WTU1 3798 TIP3 H1   HT     0.417000        1.0079           0
    2181 WTU1 3798 TIP3 H2   HT     0.417000        1.0079           0
    2182 WTU1 3800 TIP3 OH2  OT    -0.834000       15.9994           0
    2183 WTU1 3800 TIP3 H1   HT     0.417000        1.0079           0
    2184 WTU1 3800 TIP3 H2   HT     0.417000        1.0079           0
    2185 WTU1 3801 TIP3 OH2  OT    -0.834000       15.9994           0
    2186 WTU1 3801 TIP3 H1   HT     0.417000        1.0079           0
    2187 WTU1 3801 TIP3 H2   HT     0.417000        1.0079           0
    2188 WTU1 3802 TIP3 OH2  OT    -0.834000       15.9994           0
    2189 WTU1 3802 TIP3 H1   HT     0.417000        1.0079           0
    2190 WTU1 3802 TIP3 H2   HT     0.417000        1.0079           0
    2191 WTU1 3804 TIP3 OH2  OT    -0.834000       15.9994           0
    2192 WTU1 3804 TIP3 H1   HT     0.417000        1.0079           0
    2193 WTU1 3804 TIP3 H2   HT     0.417000        1.0079           0
    2194 WTU1 3805 TIP3 OH2  OT    -0.834000       15.9994           0
    2195 WTU1 3805 TIP3 H1   HT     0.417000        1.0079           0
    2196 WTU1 3805 TIP3 H2   HT     0.417000        1.0079           0
    2197 WTU1 3807 TIP3 OH2  OT    -0.834000       15.9994           0
    2198 WTU1 3807 TIP3 H1   HT     0.417000        1.0079           0
    2199 WTU1 3807 TIP3 H2   HT     0.417000        1.0079           0
    2200 WTU1 3809 TIP3 OH2  OT    -0.834000       15.9994           0
    2201 WTU1 3809 TIP3 H1   HT     0.417000        1.0079           0
    2202 WTU1 3809 TIP3 H2   HT     0.417000        1.0079           0
    2203 WTU1 3821 TIP3 OH2  OT    -0.834000       15.9994           0
    2204 WTU1 3821 TIP3 H1   HT     0.417000        1.0079           0
    2205 WTU1 3821 TIP3 H2   HT     0.417000        1.0079           0
    2206 WTU1 3823 TIP3 OH2  OT    -0.834000       15.9994           0
    2207 WTU1 3823 TIP3 H1   HT     0.417000        1.0079           0
    2208 WTU1 3823 TIP3 H2   HT     0.417000        1.0079           0
    2209 WTU1 3826 TIP3 OH2  OT    -0.834000       15.9994           0
    2210 WTU1 3826 TIP3 H1   HT     0.417000        1.0079           0
    2211 WTU1 3826 TIP3 H2   HT     0.417000        1.0079           0
    2212 WTU1 3827 TIP3 OH2  OT    -0.834000       15.9994           0
    2213 WTU1 3827 TIP3 H1   HT     0.417000        1.0079           0
    2214 WTU1 3827 TIP3 H2   HT     0.417000        1.0079           0
    2215 WTU1 3828 TIP3 OH2  OT    -0.834000       15.9994           0
    2216 WTU1 3828 TIP3 H1   HT     0.417000        1.0079           0
    2217 WTU1 3828 TIP3 H2   HT     0.417000        1.0079           0
    2218 WTU1 3829 TIP3 OH2  OT    -0.834000       15.9994           0
    2219 WTU1 3829 TIP3 H1   HT     0.417000        1.0079           0
    2220 WTU1 3829 TIP3 H2   HT     0.417000        1.0079           0
    2221 WTU1 3845 TIP3 OH2  OT    -0.834000       15.9994           0
    2222 WTU1 3845 TIP3 H1   HT     0.417000        1.0079           0
    2223 WTU1 3845 TIP3 H2   HT     0.417000        1.0079           0
    2224 WTU1 3846 TIP3 OH2  OT    -0.834000       15.9994           0
    2225 WTU1 3846 TIP3 H1   HT     0.417000        1.0079           0
    2226 WTU1 3846 TIP3 H2   HT     0.417000        1.0079           0
    2227 WTU1 3847 TIP3 OH2  OT    -0.834000       15.9994           0
    2228 WTU1 3847 TIP3 H1   HT     0.417000        1.0079           0
    2229 WTU1 3847 TIP3 H2   HT     0.417000        1.0079           0
    2230 WTU1 3848 TIP3 OH2  OT    -0.834000       15.9994           0
    2231 WTU1 3848 TIP3 H1   HT     0.417000        1.0079           0
    2232 WTU1 3848 TIP3 H2   HT     0.417000        1.0079           0
    2233 WTU1 3849 TIP3 OH2  OT    -0.834000       15.9994           0
    2234 WTU1 3849 TIP3 H1   HT     0.417000        1.0079           0
    2235 WTU1 3849 TIP3 H2   HT     0.417000        1.0079           0
    2236 WTU1 3863 TIP3 OH2  OT    -0.834000       15.9994           0
    2237 WTU1 3863 TIP3 H1   HT     0.417000        1.0079           0
    2238 WTU1 3863 TIP3 H2   HT     0.417000        1.0079           0
    2239 WTU1 3865 TIP3 OH2  OT    -0.834000       15.9994           0
    2240 WTU1 3865 TIP3 H1   HT     0.417000        1.0079           0
    2241 WTU1 3865 TIP3 H2   HT     0.417000        1.0079           0
    2242 WTU1 3867 TIP3 OH2  OT    -0.834000       15.9994           0
    2243 WTU1 3867 TIP3 H1   HT     0.417000        1.0079           0
    2244 WTU1 3867 TIP3 H2   HT     0.417000        1.0079           0
    2245 WTU1 3868 TIP3 OH2  OT    -0.834000       15.9994           0
    2246 WTU1 3868 TIP3 H1   HT     0.417000        1.0079           0
    2247 WTU1 3868 TIP3 H2   HT     0.417000        1.0079           0
    2248 WTU1 3869 TIP3 OH2  OT    -0.834000       15.9994           0
    2249 WTU1 3869 TIP3 H1   HT     0.417000        1.0079           0
    2250 WTU1 3869 TIP3 H2   HT     0.417000        1.0079           0
    2251 WTU1 3875 TIP3 OH2  OT    -0.834000       15.9994           0
    2252 WTU1 3875 TIP3 H1   HT     0.417000        1.0079           0
    2253 WTU1 3875 TIP3 H2   HT     0.417000        1.0079           0
    2254 WTU1 3882 TIP3 OH2  OT    -0.834000       15.9994           0
    2255 WTU1 3882 TIP3 H1   HT     0.417000        1.0079           0
    2256 WTU1 3882 TIP3 H2   HT     0.417000        1.0079           0
    2257 WTU1 3885 TIP3 OH2  OT    -0.834000       15.9994           0
    2258 WTU1 3885 TIP3 H1   HT     0.417000        1.0079           0
    2259 WTU1 3885 TIP3 H2   HT     0.417000        1.0079           0
    2260 WTU1 3886 TIP3 OH2  OT    -0.834000       15.9994           0
    2261 WTU1 3886 TIP3 H1   HT     0.417000        1.0079           0
    2262 WTU1 3886 TIP3 H2   HT     0.417000        1.0079           0
    2263 WTU1 3888 TIP3 OH2  OT    -0.834000       15.9994           0
    2264 WTU1 3888 TIP3 H1   HT     0.417000        1.0079           0
    2265 WTU1 3888 TIP3 H2   HT     0.417000        1.0079           0
    2266 WTU1 3889 TIP3 OH2  OT    -0.834000       15.9994           0
    2267 WTU1 3889 TIP3 H1   HT     0.417000        1.0079           0
    2268 WTU1 3889 TIP3 H2   HT     0.417000        1.0079           0
    2269 WTU1 3907 TIP3 OH2  OT    -0.834000       15.9994           0
    2270 WTU1 3907 TIP3 H1   HT     0.417000        1.0079           0
    2271 WTU1 3907 TIP3 H2   HT     0.417000        1.0079           0
    2272 WTU1 3909 TIP3 OH2  OT    -0.834000       15.9994           0
    2273 WTU1 3909 TIP3 H1   HT     0.417000        1.0079           0
    2274 WTU1 3909 TIP3 H2   HT     0.417000        1.0079           0
    2275 WTU1 3912 TIP3 OH2  OT    -0.834000       15.9994           0
    2276 WTU1 3912 TIP3 H1   HT     0.417000        1.0079           0
    2277 WTU1 3912 TIP3 H2   HT     0.417000        1.0079           0
    2278 WTU1 3928 TIP3 OH2  OT    -0.834000       15.9994           0
    2279 WTU1 3928 TIP3 H1   HT     0.417000        1.0079           0
    2280 WTU1 3928 TIP3 H2   HT     0.417000        1.0079           0
    2281 WTU1 3929 TIP3 OH2  OT    -0.834000       15.9994           0
    2282 WTU1 3929 TIP3 H1   HT     0.417000        1.0079           0
    2283 WTU1 3929 TIP3 H2   HT     0.417000        1.0079           0
    2284 WTU1 3930 TIP3 OH2  OT    -0.834000       15.9994           0
    2285 WTU1 3930 TIP3 H1   HT     0.417000        1.0079           0
    2286 WTU1 3930 TIP3 H2   HT     0.417000        1.0079           0
    2287 WTU1 3931 TIP3 OH2  OT    -0.834000       15.9994           0
    2288 WTU1 3931 TIP3 H1   HT     0.417000        1.0079           0
    2289 WTU1 3931 TIP3 H2   HT     0.417000        1.0079           0
    2290 WTU1 3932 TIP3 OH2  OT    -0.834000       15.9994           0
    2291 WTU1 3932 TIP3 H1   HT     0.417000        1.0079           0
    2292 WTU1 3932 TIP3 H2   HT     0.417000        1.0079           0
    2293 WTU1 3933 TIP3 OH2  OT    -0.834000       15.9994           0
    2294 WTU1 3933 TIP3 H1   HT     0.417000        1.0079           0
    2295 WTU1 3933 TIP3 H2   HT     0.417000        1.0079           0
    2296 WTU1 3949 TIP3 OH2  OT    -0.834000       15.9994           0
    2297 WTU1 3949 TIP3 H1   HT     0.417000        1.0079           0
    2298 WTU1 3949 TIP3 H2   HT     0.417000        1.0079           0
    2299 WTU1 3951 TIP3 OH2  OT    -0.834000       15.9994           0
    2300 WTU1 3951 TIP3 H1   HT     0.417000        1.0079           0
    2301 WTU1 3951 TIP3 H2   HT     0.417000        1.0079           0
    2302 WTU1 3955 TIP3 OH2  OT    -0.834000       15.9994           0
    2303 WTU1 3955 TIP3 H1   HT     0.417000        1.0079           0
    2304 WTU1 3955 TIP3 H2   HT     0.417000        1.0079           0
    2305 WTU1 3971 TIP3 OH2  OT    -0.834000       15.9994           0
    2306 WTU1 3971 TIP3 H1   HT     0.417000        1.0079           0
    2307 WTU1 3971 TIP3 H2   HT     0.417000        1.0079           0
    2308 WTU1 3975 TIP3 OH2  OT    -0.834000       15.9994           0
    2309 WTU1 3975 TIP3 H1   HT     0.417000        1.0079           0
    2310 WTU1 3975 TIP3 H2   HT     0.417000        1.0079           0
    2311 WTU1 3976 TIP3 OH2  OT    -0.834000       15.9994           0
    2312 WTU1 3976 TIP3 H1   HT     0.417000        1.0079           0
    2313 WTU1 3976 TIP3 H2   HT     0.417000        1.0079           0
    2314 WTU1 3977 TIP3 OH2  OT    -0.834000       15.9994           0
    2315 WTU1 3977 TIP3 H1   HT     0.417000        1.0079           0
    2316 WTU1 3977 TIP3 H2   HT     0.417000        1.0079           0
    2317 WTU1 3986 TIP3 OH2  OT    -0.834000       15.9994           0
    2318 WTU1 3986 TIP3 H1   HT     0.417000        1.0079           0
    2319 WTU1 3986 TIP3 H2   HT     0.417000        1.0079           0
    2320 WTU1 3992 TIP3 OH2  OT    -0.834000       15.9994           0
    2321 WTU1 3992 TIP3 H1   HT     0.417000        1.0079           0
    2322 WTU1 3992 TIP3 H2   HT     0.417000        1.0079           0
    2323 WTU1 3993 TIP3 OH2  OT    -0.834000       15.9994           0
    2324 WTU1 3993 TIP3 H1   HT     0.417000        1.0079           0
    2325 WTU1 3993 TIP3 H2   HT     0.417000        1.0079           0
    2326 WTU1 3996 TIP3 OH2  OT    -0.834000       15.9994           0
    2327 WTU1 3996 TIP3 H1   HT     0.417000        1.0079           0
    2328 WTU1 3996 TIP3 H2   HT     0.417000        1.0079           0
    2329 WTU1 4010 TIP3 OH2  OT    -0.834000       15.9994           0
    2330 WTU1 4010 TIP3 H1   HT     0.417000        1.0079           0
    2331 WTU1 4010 TIP3 H2   HT     0.417000        1.0079           0
    2332 WTU1 4011 TIP3 OH2  OT    -0.834000       15.9994           0
    2333 WTU1 4011 TIP3 H1   HT     0.417000        1.0079           0
    2334 WTU1 4011 TIP3 H2   HT     0.417000        1.0079           0
    2335 WTU1 4012 TIP3 OH2  OT    -0.834000       15.9994           0
    2336 WTU1 4012 TIP3 H1   HT     0.417000        1.0079           0
    2337 WTU1 4012 TIP3 H2   HT     0.417000        1.0079           0
    2338 WTU1 4014 TIP3 OH2  OT    -0.834000       15.9994           0
    2339 WTU1 4014 TIP3 H1   HT     0.417000        1.0079           0
    2340 WTU1 4014 TIP3 H2   HT     0.417000        1.0079           0
    2341 WTU1 4015 TIP3 OH2  OT    -0.834000       15.9994           0
    2342 WTU1 4015 TIP3 H1   HT     0.417000        1.0079           0
    2343 WTU1 4015 TIP3 H2   HT     0.417000        1.0079           0
    2344 WTU1 4016 TIP3 OH2  OT    -0.834000       15.9994           0
    2345 WTU1 4016 TIP3 H1   HT     0.417000        1.0079           0
    2346 WTU1 4016 TIP3 H2   HT     0.417000        1.0079           0
    2347 WTU1 4017 TIP3 OH2  OT    -0.834000       15.9994           0
    2348 WTU1 4017 TIP3 H1   HT     0.417000        1.0079           0
    2349 WTU1 4017 TIP3 H2   HT     0.417000        1.0079           0
    2350 WTU1 4030 TIP3 OH2  OT    -0.834000       15.9994           0
    2351 WTU1 4030 TIP3 H1   HT     0.417000        1.0079           0
    2352 WTU1 4030 TIP3 H2   HT     0.417000        1.0079           0
    2353 WTU1 4033 TIP3 OH2  OT    -0.834000       15.9994           0
    2354 WTU1 4033 TIP3 H1   HT     0.417000        1.0079           0
    2355 WTU1 4033 TIP3 H2   HT     0.417000        1.0079           0
    2356 WTU1 4035 TIP3 OH2  OT    -0.834000       15.9994           0
    2357 WTU1 4035 TIP3 H1   HT     0.417000        1.0079           0
    2358 WTU1 4035 TIP3 H2   HT     0.417000        1.0079           0
    2359 WTU1 4037 TIP3 OH2  OT    -0.834000       15.9994           0
    2360 WTU1 4037 TIP3 H1   HT     0.417000        1.0079           0
    2361 WTU1 4037 TIP3 H2   HT     0.417000        1.0079           0
    2362 WTU1 4053 TIP3 OH2  OT    -0.834000       15.9994           0
    2363 WTU1 4053 TIP3 H1   HT     0.417000        1.0079           0
    2364 WTU1 4053 TIP3 H2   HT     0.417000        1.0079           0
    2365 WTU1 4055 TIP3 OH2  OT    -0.834000       15.9994           0
    2366 WTU1 4055 TIP3 H1   HT     0.417000        1.0079           0
    2367 WTU1 4055 TIP3 H2   HT     0.417000        1.0079           0
    2368 WTU1 4057 TIP3 OH2  OT    -0.834000       15.9994           0
    2369 WTU1 4057 TIP3 H1   HT     0.417000        1.0079           0
    2370 WTU1 4057 TIP3 H2   HT     0.417000        1.0079           0
    2371 WTU1 4060 TIP3 OH2  OT    -0.834000       15.9994           0
    2372 WTU1 4060 TIP3 H1   HT     0.417000        1.0079           0
    2373 WTU1 4060 TIP3 H2   HT     0.417000        1.0079           0
    2374 WTU1 4072 TIP3 OH2  OT    -0.834000       15.9994           0
    2375 WTU1 4072 TIP3 H1   HT     0.417000        1.0079           0
    2376 WTU1 4072 TIP3 H2   HT     0.417000        1.0079           0
    2377 WTU1 4074 TIP3 OH2  OT    -0.834000       15.9994           0
    2378 WTU1 4074 TIP3 H1   HT     0.417000        1.0079           0
    2379 WTU1 4074 TIP3 H2   HT     0.417000        1.0079           0
    2380 WTU1 4076 TIP3 OH2  OT    -0.834000       15.9994           0
    2381 WTU1 4076 TIP3 H1   HT     0.417000        1.0079           0
    2382 WTU1 4076 TIP3 H2   HT     0.417000        1.0079           0
    2383 WTU1 4078 TIP3 OH2  OT    -0.834000       15.9994           0
    2384 WTU1 4078 TIP3 H1   HT     0.417000        1.0079           0
    2385 WTU1 4078 TIP3 H2   HT     0.417000        1.0079           0
    2386 WTU1 4093 TIP3 OH2  OT    -0.834000       15.9994           0
    2387 WTU1 4093 TIP3 H1   HT     0.417000        1.0079           0
    2388 WTU1 4093 TIP3 H2   HT     0.417000        1.0079           0
    2389 WTU1 4097 TIP3 OH2  OT    -0.834000       15.9994           0
    2390 WTU1 4097 TIP3 H1   HT     0.417000        1.0079           0
    2391 WTU1 4097 TIP3 H2   HT     0.417000        1.0079           0
    2392 WTU1 4098 TIP3 OH2  OT    -0.834000       15.9994           0
    2393 WTU1 4098 TIP3 H1   HT     0.417000        1.0079           0
    2394 WTU1 4098 TIP3 H2   HT     0.417000        1.0079           0
    2395 WTU1 4100 TIP3 OH2  OT    -0.834000       15.9994           0
    2396 WTU1 4100 TIP3 H1   HT     0.417000        1.0079           0
    2397 WTU1 4100 TIP3 H2   HT     0.417000        1.0079           0
    2398 WTU1 4116 TIP3 OH2  OT    -0.834000       15.9994           0
    2399 WTU1 4116 TIP3 H1   HT     0.417000        1.0079           0
    2400 WTU1 4116 TIP3 H2   HT     0.417000        1.0079           0
    2401 WTU1 4120 TIP3 OH2  OT    -0.834000       15.9994           0
    2402 WTU1 4120 TIP3 H1   HT     0.417000        1.0079           0
    2403 WTU1 4120 TIP3 H2   HT     0.417000        1.0079           0
    2404 WTU1 4121 TIP3 OH2  OT    -0.834000       15.9994           0
    2405 WTU1 4121 TIP3 H1   HT     0.417000        1.0079           0
    2406 WTU1 4121 TIP3 H2   HT     0.417000        1.0079           0
    2407 WTU1 4138 TIP3 OH2  OT    -0.834000       15.9994           0
    2408 WTU1 4138 TIP3 H1   HT     0.417000        1.0079           0
    2409 WTU1 4138 TIP3 H2   HT     0.417000        1.0079           0
    2410 WTU1 4139 TIP3 OH2  OT    -0.834000       15.9994           0
    2411 WTU1 4139 TIP3 H1   HT     0.417000        1.0079           0
    2412 WTU1 4139 TIP3 H2   HT     0.417000        1.0079           0
    2413 WTU1 4141 TIP3 OH2  OT    -0.834000       15.9994           0
    2414 WTU1 4141 TIP3 H1   HT     0.417000        1.0079           0
    2415 WTU1 4141 TIP3 H2   HT     0.417000        1.0079           0
    2416 WTU1 4142 TIP3 OH2  OT    -0.834000       15.9994           0
    2417 WTU1 4142 TIP3 H1   HT     0.417000        1.0079           0
    2418 WTU1 4142 TIP3 H2   HT     0.417000        1.0079           0
    2419 WTU1 4143 TIP3 OH2  OT    -0.834000       15.9994           0
    2420 WTU1 4143 TIP3 H1   HT     0.417000        1.0079           0
    2421 WTU1 4143 TIP3 H2   HT     0.417000        1.0079           0
    2422 WTU1 4157 TIP3 OH2  OT    -0.834000       15.9994           0
    2423 WTU1 4157 TIP3 H1   HT     0.417000        1.0079           0
    2424 WTU1 4157 TIP3 H2   HT     0.417000        1.0079           0
    2425 WTU1 4158 TIP3 OH2  OT    -0.834000       15.9994           0
    2426 WTU1 4158 TIP3 H1   HT     0.417000        1.0079           0
    2427 WTU1 4158 TIP3 H2   HT     0.417000        1.0079           0
    2428 WTU1 4159 TIP3 OH2  OT    -0.834000       15.9994           0
    2429 WTU1 4159 TIP3 H1   HT     0.417000        1.0079           0
    2430 WTU1 4159 TIP3 H2   HT     0.417000        1.0079           0
    2431 WTU1 4161 TIP3 OH2  OT    -0.834000       15.9994           0
    2432 WTU1 4161 TIP3 H1   HT     0.417000        1.0079           0
    2433 WTU1 4161 TIP3 H2   HT     0.417000        1.0079           0
    2434 WTU1 4179 TIP3 OH2  OT    -0.834000       15.9994           0
    2435 WTU1 4179 TIP3 H1   HT     0.417000        1.0079           0
    2436 WTU1 4179 TIP3 H2   HT     0.417000        1.0079           0
    2437 WTU1 4181 TIP3 OH2  OT    -0.834000       15.9994           0
    2438 WTU1 4181 TIP3 H1   HT     0.417000        1.0079           0
    2439 WTU1 4181 TIP3 H2   HT     0.417000        1.0079           0
    2440 WTU1 4184 TIP3 OH2  OT    -0.834000       15.9994           0
    2441 WTU1 4184 TIP3 H1   HT     0.417000        1.0079           0
    2442 WTU1 4184 TIP3 H2   HT     0.417000        1.0079           0
    2443 WTU1 4198 TIP3 OH2  OT    -0.834000       15.9994           0
    2444 WTU1 4198 TIP3 H1   HT     0.417000        1.0079           0
    2445 WTU1 4198 TIP3 H2   HT     0.417000        1.0079           0
    2446 WTU1 4200 TIP3 OH2  OT    -0.834000       15.9994           0
    2447 WTU1 4200 TIP3 H1   HT     0.417000        1.0079           0
    2448 WTU1 4200 TIP3 H2   HT     0.417000        1.0079           0
    2449 WTU1 4201 TIP3 OH2  OT    -0.834000       15.9994           0
    2450 WTU1 4201 TIP3 H1   HT     0.417000        1.0079           0
    2451 WTU1 4201 TIP3 H2   HT     0.417000        1.0079           0
    2452 WTU1 4202 TIP3 OH2  OT    -0.834000       15.9994           0
    2453 WTU1 4202 TIP3 H1   HT     0.417000        1.0079           0
    2454 WTU1 4202 TIP3 H2   HT     0.417000        1.0079           0
    2455 WTU1 4218 TIP3 OH2  OT    -0.834000       15.9994           0
    2456 WTU1 4218 TIP3 H1   HT     0.417000        1.0079           0
    2457 WTU1 4218 TIP3 H2   HT     0.417000        1.0079           0
    2458 WTU1 4219 TIP3 OH2  OT    -0.834000       15.9994           0
    2459 WTU1 4219 TIP3 H1   HT     0.417000        1.0079           0
    2460 WTU1 4219 TIP3 H2   HT     0.417000        1.0079           0
    2461 WTU1 4224 TIP3 OH2  OT    -0.834000       15.9994           0
    2462 WTU1 4224 TIP3 H1   HT     0.417000        1.0079           0
    2463 WTU1 4224 TIP3 H2   HT     0.417000        1.0079           0
    2464 WTU1 4226 TIP3 OH2  OT    -0.834000       15.9994           0
    2465 WTU1 4226 TIP3 H1   HT     0.417000        1.0079           0
    2466 WTU1 4226 TIP3 H2   HT     0.417000        1.0079           0
    2467 WTU1 4227 TIP3 OH2  OT    -0.834000       15.9994           0
    2468 WTU1 4227 TIP3 H1   HT     0.417000        1.0079           0
    2469 WTU1 4227 TIP3 H2   HT     0.417000        1.0079           0
    2470 WTU1 4245 TIP3 OH2  OT    -0.834000       15.9994           0
    2471 WTU1 4245 TIP3 H1   HT     0.417000        1.0079           0
    2472 WTU1 4245 TIP3 H2   HT     0.417000        1.0079           0
    2473 WTU1 4246 TIP3 OH2  OT    -0.834000       15.9994           0
    2474 WTU1 4246 TIP3 H1   HT     0.417000        1.0079           0
    2475 WTU1 4246 TIP3 H2   HT     0.417000        1.0079           0
    2476 WTU1 4247 TIP3 OH2  OT    -0.834000       15.9994           0
    2477 WTU1 4247 TIP3 H1   HT     0.417000        1.0079           0
    2478 WTU1 4247 TIP3 H2   HT     0.417000        1.0079           0
    2479 WTU1 4248 TIP3 OH2  OT    -0.834000       15.9994           0
    2480 WTU1 4248 TIP3 H1   HT     0.417000        1.0079           0
    2481 WTU1 4248 TIP3 H2   HT     0.417000        1.0079           0
    2482 WTU1 4262 TIP3 OH2  OT    -0.834000       15.9994           0
    2483 WTU1 4262 TIP3 H1   HT     0.417000        1.0079           0
    2484 WTU1 4262 TIP3 H2   HT     0.417000        1.0079           0
    2485 WTU1 4264 TIP3 OH2  OT    -0.834000       15.9994           0
    2486 WTU1 4264 TIP3 H1   HT     0.417000        1.0079           0
    2487 WTU1 4264 TIP3 H2   HT     0.417000        1.0079           0
    2488 WTU1 4266 TIP3 OH2  OT    -0.834000       15.9994           0
    2489 WTU1 4266 TIP3 H1   HT     0.417000        1.0079           0
    2490 WTU1 4266 TIP3 H2   HT     0.417000        1.0079           0
    2491 WTU1 4267 TIP3 OH2  OT    -0.834000       15.9994           0
    2492 WTU1 4267 TIP3 H1   HT     0.417000        1.0079           0
    2493 WTU1 4267 TIP3 H2   HT     0.417000        1.0079           0
    2494 WTU1 4268 TIP3 OH2  OT    -0.834000       15.9994           0
    2495 WTU1 4268 TIP3 H1   HT     0.417000        1.0079           0
    2496 WTU1 4268 TIP3 H2   HT     0.417000        1.0079           0
    2497 WTU1 4269 TIP3 OH2  OT    -0.834000       15.9994           0
    2498 WTU1 4269 TIP3 H1   HT     0.417000        1.0079           0
    2499 WTU1 4269 TIP3 H2   HT     0.417000        1.0079           0
    2500 WTU1 4282 TIP3 OH2  OT    -0.834000       15.9994           0
    2501 WTU1 4282 TIP3 H1   HT     0.417000        1.0079           0
    2502 WTU1 4282 TIP3 H2   HT     0.417000        1.0079           0
    2503 WTU1 4283 TIP3 OH2  OT    -0.834000       15.9994           0
    2504 WTU1 4283 TIP3 H1   HT     0.417000        1.0079           0
    2505 WTU1 4283 TIP3 H2   HT     0.417000        1.0079           0
    2506 WTU1 4287 TIP3 OH2  OT    -0.834000       15.9994           0
    2507 WTU1 4287 TIP3 H1   HT     0.417000        1.0079           0
    2508 WTU1 4287 TIP3 H2   HT     0.417000        1.0079           0
    2509 WTU1 4289 TIP3 OH2  OT    -0.834000       15.9994           0
    2510 WTU1 4289 TIP3 H1   HT     0.417000        1.0079           0
    2511 WTU1 4289 TIP3 H2   HT     0.417000        1.0079           0
    2512 WTU1 4290 TIP3 OH2  OT    -0.834000       15.9994           0
    2513 WTU1 4290 TIP3 H1   HT     0.417000        1.0079           0
    2514 WTU1 4290 TIP3 H2   HT     0.417000        1.0079           0
    2515 WTU1 4304 TIP3 OH2  OT    -0.834000       15.9994           0
    2516 WTU1 4304 TIP3 H1   HT     0.417000        1.0079           0
    2517 WTU1 4304 TIP3 H2   HT     0.417000        1.0079           0
    2518 WTU1 4306 TIP3 OH2  OT    -0.834000       15.9994           0
    2519 WTU1 4306 TIP3 H1   HT     0.417000        1.0079           0
    2520 WTU1 4306 TIP3 H2   HT     0.417000        1.0079           0
    2521 WTU1 4307 TIP3 OH2  OT    -0.834000       15.9994           0
    2522 WTU1 4307 TIP3 H1   HT     0.417000        1.0079           0
    2523 WTU1 4307 TIP3 H2   HT     0.417000        1.0079           0
    2524 WTU1 4309 TIP3 OH2  OT    -0.834000       15.9994           0
    2525 WTU1 4309 TIP3 H1   HT     0.417000        1.0079           0
    2526 WTU1 4309 TIP3 H2   HT     0.417000        1.0079           0
    2527 WTU1 4311 TIP3 OH2  OT    -0.834000       15.9994           0
    2528 WTU1 4311 TIP3 H1   HT     0.417000        1.0079           0
    2529 WTU1 4311 TIP3 H2   HT     0.417000        1.0079           0
    2530 WTU1 4321 TIP3 OH2  OT    -0.834000       15.9994           0
    2531 WTU1 4321 TIP3 H1   HT     0.417000        1.0079           0
    2532 WTU1 4321 TIP3 H2   HT     0.417000        1.0079           0
    2533 WTU1 4328 TIP3 OH2  OT    -0.834000       15.9994           0
    2534 WTU1 4328 TIP3 H1   HT     0.417000        1.0079           0
    2535 WTU1 4328 TIP3 H2   HT     0.417000        1.0079           0
    2536 WTU1 4330 TIP3 OH2  OT    -0.834000       15.9994           0
    2537 WTU1 4330 TIP3 H1   HT     0.417000        1.0079           0
    2538 WTU1 4330 TIP3 H2   HT     0.417000        1.0079           0
    2539 WTU1 4350 TIP3 OH2  OT    -0.834000       15.9994           0
    2540 WTU1 4350 TIP3 H1   HT     0.417000        1.0079           0
    2541 WTU1 4350 TIP3 H2   HT     0.417000        1.0079           0
    2542 WTU1 4352 TIP3 OH2  OT    -0.834000       15.9994           0
    2543 WTU1 4352 TIP3 H1   HT     0.417000        1.0079           0
    2544 WTU1 4352 TIP3 H2   HT     0.417000        1.0079           0
    2545 WTU1 4353 TIP3 OH2  OT    -0.834000       15.9994           0
    2546 WTU1 4353 TIP3 H1   HT     0.417000        1.0079           0
    2547 WTU1 4353 TIP3 H2   HT     0.417000        1.0079           0
    2548 WTU1 4363 TIP3 OH2  OT    -0.834000       15.9994           0
    2549 WTU1 4363 TIP3 H1   HT     0.417000        1.0079           0
    2550 WTU1 4363 TIP3 H2   HT     0.417000        1.0079           0
    2551 WTU1 4372 TIP3 OH2  OT    -0.834000       15.9994           0
    2552 WTU1 4372 TIP3 H1   HT     0.417000        1.0079           0
    2553 WTU1 4372 TIP3 H2   HT     0.417000        1.0079           0
    2554 WTU1 4373 TIP3 OH2  OT    -0.834000       15.9994           0
    2555 WTU1 4373 TIP3 H1   HT     0.417000        1.0079           0
    2556 WTU1 4373 TIP3 H2   HT     0.417000        1.0079           0
    2557 WTU1 4374 TIP3 OH2  OT    -0.834000       15.9994           0
    2558 WTU1 4374 TIP3 H1   HT     0.417000        1.0079           0
    2559 WTU1 4374 TIP3 H2   HT     0.417000        1.0079           0
    2560 WTU1 4387 TIP3 OH2  OT    -0.834000       15.9994           0
    2561 WTU1 4387 TIP3 H1   HT     0.417000        1.0079           0
    2562 WTU1 4387 TIP3 H2   HT     0.417000        1.0079           0
    2563 WTU1 4391 TIP3 OH2  OT    -0.834000       15.9994           0
    2564 WTU1 4391 TIP3 H1   HT     0.417000        1.0079           0
    2565 WTU1 4391 TIP3 H2   HT     0.417000        1.0079           0
    2566 WTU1 4392 TIP3 OH2  OT    -0.834000       15.9994           0
    2567 WTU1 4392 TIP3 H1   HT     0.417000        1.0079           0
    2568 WTU1 4392 TIP3 H2   HT     0.417000        1.0079           0
    2569 WTU1 4393 TIP3 OH2  OT    -0.834000       15.9994           0
    2570 WTU1 4393 TIP3 H1   HT     0.417000        1.0079           0
    2571 WTU1 4393 TIP3 H2   HT     0.417000        1.0079           0
    2572 WTU1 4394 TIP3 OH2  OT    -0.834000       15.9994           0
    2573 WTU1 4394 TIP3 H1   HT     0.417000        1.0079           0
    2574 WTU1 4394 TIP3 H2   HT     0.417000        1.0079           0
    2575 WTU1 4411 TIP3 OH2  OT    -0.834000       15.9994           0
    2576 WTU1 4411 TIP3 H1   HT     0.417000        1.0079           0
    2577 WTU1 4411 TIP3 H2   HT     0.417000        1.0079           0
    2578 WTU1 4414 TIP3 OH2  OT    -0.834000       15.9994           0
    2579 WTU1 4414 TIP3 H1   HT     0.417000        1.0079           0
    2580 WTU1 4414 TIP3 H2   HT     0.417000        1.0079           0
    2581 WTU1 4432 TIP3 OH2  OT    -0.834000       15.9994           0
    2582 WTU1 4432 TIP3 H1   HT     0.417000        1.0079           0
    2583 WTU1 4432 TIP3 H2   HT     0.417000        1.0079           0
    2584 WTU1 4434 TIP3 OH2  OT    -0.834000       15.9994           0
    2585 WTU1 4434 TIP3 H1   HT     0.417000        1.0079           0
    2586 WTU1 4434 TIP3 H2   HT     0.417000        1.0079           0
    2587 WTU1 4437 TIP3 OH2  OT    -0.834000       15.9994           0
    2588 WTU1 4437 TIP3 H1   HT     0.417000        1.0079           0
    2589 WTU1 4437 TIP3 H2   HT     0.417000        1.0079           0
    2590 WTU1 4452 TIP3 OH2  OT    -0.834000       15.9994           0
    2591 WTU1 4452 TIP3 H1   HT     0.417000        1.0079           0
    2592 WTU1 4452 TIP3 H2   HT     0.417000        1.0079           0
    2593 WTU1 4453 TIP3 OH2  OT    -0.834000       15.9994           0
    2594 WTU1 4453 TIP3 H1   HT     0.417000        1.0079           0
    2595 WTU1 4453 TIP3 H2   HT     0.417000        1.0079           0
    2596 WTU1 4454 TIP3 OH2  OT    -0.834000       15.9994           0
    2597 WTU1 4454 TIP3 H1   HT     0.417000        1.0079           0
    2598 WTU1 4454 TIP3 H2   HT     0.417000        1.0079           0
    2599 WTU1 4455 TIP3 OH2  OT    -0.834000       15.9994           0
    2600 WTU1 4455 TIP3 H1   HT     0.417000        1.0079           0
    2601 WTU1 4455 TIP3 H2   HT     0.417000        1.0079           0
    2602 WTU1 4457 TIP3 OH2  OT    -0.834000       15.9994           0
    2603 WTU1 4457 TIP3 H1   HT     0.417000        1.0079           0
    2604 WTU1 4457 TIP3 H2   HT     0.417000        1.0079           0
    2605 WTU1 4473 TIP3 OH2  OT    -0.834000       15.9994           0
    2606 WTU1 4473 TIP3 H1   HT     0.417000        1.0079           0
    2607 WTU1 4473 TIP3 H2   HT     0.417000        1.0079           0
    2608 WTU1 4474 TIP3 OH2  OT    -0.834000       15.9994           0
    2609 WTU1 4474 TIP3 H1   HT     0.417000        1.0079           0
    2610 WTU1 4474 TIP3 H2   HT     0.417000        1.0079           0
    2611 WTU1 4477 TIP3 OH2  OT    -0.834000       15.9994           0
    2612 WTU1 4477 TIP3 H1   HT     0.417000        1.0079           0
    2613 WTU1 4477 TIP3 H2   HT     0.417000        1.0079           0
    2614 WTU1 4478 TIP3 OH2  OT    -0.834000       15.9994           0
    2615 WTU1 4478 TIP3 H1   HT     0.417000        1.0079           0
    2616 WTU1 4478 TIP3 H2   HT     0.417000        1.0079           0
    2617 WTU1 4479 TIP3 OH2  OT    -0.834000       15.9994           0
    2618 WTU1 4479 TIP3 H1   HT     0.417000        1.0079           0
    2619 WTU1 4479 TIP3 H2   HT     0.417000        1.0079           0
    2620 WTU1 4481 TIP3 OH2  OT    -0.834000       15.9994           0
    2621 WTU1 4481 TIP3 H1   HT     0.417000        1.0079           0
    2622 WTU1 4481 TIP3 H2   HT     0.417000        1.0079           0
    2623 WTU1 4492 TIP3 OH2  OT    -0.834000       15.9994           0
    2624 WTU1 4492 TIP3 H1   HT     0.417000        1.0079           0
    2625 WTU1 4492 TIP3 H2   HT     0.417000        1.0079           0
    2626 WTU1 4496 TIP3 OH2  OT    -0.834000       15.9994           0
    2627 WTU1 4496 TIP3 H1   HT     0.417000        1.0079           0
    2628 WTU1 4496 TIP3 H2   HT     0.417000        1.0079           0
    2629 WTU1 4497 TIP3 OH2  OT    -0.834000       15.9994           0
    2630 WTU1 4497 TIP3 H1   HT     0.417000        1.0079           0
    2631 WTU1 4497 TIP3 H2   HT     0.417000        1.0079           0
    2632 WTU1 4500 TIP3 OH2  OT    -0.834000       15.9994           0
    2633 WTU1 4500 TIP3 H1   HT     0.417000        1.0079           0
    2634 WTU1 4500 TIP3 H2   HT     0.417000        1.0079           0
    2635 WTU1 4513 TIP3 OH2  OT    -0.834000       15.9994           0
    2636 WTU1 4513 TIP3 H1   HT     0.417000        1.0079           0
    2637 WTU1 4513 TIP3 H2   HT     0.417000        1.0079           0
    2638 WTU1 4516 TIP3 OH2  OT    -0.834000       15.9994           0
    2639 WTU1 4516 TIP3 H1   HT     0.417000        1.0079           0
    2640 WTU1 4516 TIP3 H2   HT     0.417000        1.0079           0
    2641 WTU1 4517 TIP3 OH2  OT    -0.834000       15.9994           0
    2642 WTU1 4517 TIP3 H1   HT     0.417000        1.0079           0
    2643 WTU1 4517 TIP3 H2   HT     0.417000        1.0079           0
    2644 WTU1 4518 TIP3 OH2  OT    -0.834000       15.9994           0
    2645 WTU1 4518 TIP3 H1   HT     0.417000        1.0079           0
    2646 WTU1 4518 TIP3 H2   HT     0.417000        1.0079           0
    2647 WTU1 4519 TIP3 OH2  OT    -0.834000       15.9994           0
    2648 WTU1 4519 TIP3 H1   HT     0.417000        1.0079           0
    2649 WTU1 4519 TIP3 H2   HT     0.417000        1.0079           0
    2650 WTU1 4536 TIP3 OH2  OT    -0.834000       15.9994           0
    2651 WTU1 4536 TIP3 H1   HT     0.417000        1.0079           0
    2652 WTU1 4536 TIP3 H2   HT     0.417000        1.0079           0
    2653 WTU1 4537 TIP3 OH2  OT    -0.834000       15.9994           0
    2654 WTU1 4537 TIP3 H1   HT     0.417000        1.0079           0
    2655 WTU1 4537 TIP3 H2   HT     0.417000        1.0079           0
    2656 WTU1 4538 TIP3 OH2  OT    -0.834000       15.9994           0
    2657 WTU1 4538 TIP3 H1   HT     0.417000        1.0079           0
    2658 WTU1 4538 TIP3 H2   HT     0.417000        1.0079           0
    2659 WTU1 4540 TIP3 OH2  OT    -0.834000       15.9994           0
    2660 WTU1 4540 TIP3 H1   HT     0.417000        1.0079           0
    2661 WTU1 4540 TIP3 H2   HT     0.417000        1.0079           0
    2662 WTU1 4542 TIP3 OH2  OT    -0.834000       15.9994           0
    2663 WTU1 4542 TIP3 H1   HT     0.417000        1.0079           0
    2664 WTU1 4542 TIP3 H2   HT     0.417000        1.0079           0
    2665 WTU1 4553 TIP3 OH2  OT    -0.834000       15.9994           0
    2666 WTU1 4553 TIP3 H1   HT     0.417000        1.0079           0
    2667 WTU1 4553 TIP3 H2   HT     0.417000        1.0079           0
    2668 WTU1 4558 TIP3 OH2  OT    -0.834000       15.9994           0
    2669 WTU1 4558 TIP3 H1   HT     0.417000        1.0079           0
    2670 WTU1 4558 TIP3 H2   HT     0.417000        1.0079           0
    2671 WTU1 4559 TIP3 OH2  OT    -0.834000       15.9994           0
    2672 WTU1 4559 TIP3 H1   HT     0.417000        1.0079           0
    2673 WTU1 4559 TIP3 H2   HT     0.417000        1.0079           0
    2674 WTU1 4561 TIP3 OH2  OT    -0.834000       15.9994           0
    2675 WTU1 4561 TIP3 H1   HT     0.417000        1.0079           0
    2676 WTU1 4561 TIP3 H2   HT     0.417000        1.0079           0
    2677 WTU1 4563 TIP3 OH2  OT    -0.834000       15.9994           0
    2678 WTU1 4563 TIP3 H1   HT     0.417000        1.0079           0
    2679 WTU1 4563 TIP3 H2   HT     0.417000        1.0079           0
    2680 WTU1 4569 TIP3 OH2  OT    -0.834000       15.9994           0
    2681 WTU1 4569 TIP3 H1   HT     0.417000        1.0079           0
    2682 WTU1 4569 TIP3 H2   HT     0.417000        1.0079           0
    2683 WTU1 4578 TIP3 OH2  OT    -0.834000       15.9994           0
    2684 WTU1 4578 TIP3 H1   HT     0.417000        1.0079           0
    2685 WTU1 4578 TIP3 H2   HT     0.417000        1.0079           0
    2686 WTU1 4581 TIP3 OH2  OT    -0.834000       15.9994           0
    2687 WTU1 4581 TIP3 H1   HT     0.417000        1.0079           0
    2688 WTU1 4581 TIP3 H2   HT     0.417000        1.0079           0
    2689 WTU1 4582 TIP3 OH2  OT    -0.834000       15.9994           0
    2690 WTU1 4582 TIP3 H1   HT     0.417000        1.0079           0
    2691 WTU1 4582 TIP3 H2   HT     0.417000        1.0079           0
    2692 WTU1 4586 TIP3 OH2  OT    -0.834000       15.9994           0
    2693 WTU1 4586 TIP3 H1   HT     0.417000        1.0079           0
    2694 WTU1 4586 TIP3 H2   HT     0.417000        1.0079           0
    2695 WTU1 4599 TIP3 OH2  OT    -0.834000       15.9994           0
    2696 WTU1 4599 TIP3 H1   HT     0.417000        1.0079           0
    2697 WTU1 4599 TIP3 H2   HT     0.417000        1.0079           0
    2698 WTU1 4600 TIP3 OH2  OT    -0.834000       15.9994           0
    2699 WTU1 4600 TIP3 H1   HT     0.417000        1.0079           0
    2700 WTU1 4600 TIP3 H2   HT     0.417000        1.0079           0
    2701 WTU1 4602 TIP3 OH2  OT    -0.834000       15.9994           0
    2702 WTU1 4602 TIP3 H1   HT     0.417000        1.0079           0
    2703 WTU1 4602 TIP3 H2   HT     0.417000        1.0079           0
    2704 WTU1 4621 TIP3 OH2  OT    -0.834000       15.9994           0
    2705 WTU1 4621 TIP3 H1   HT     0.417000        1.0079           0
    2706 WTU1 4621 TIP3 H2   HT     0.417000        1.0079           0
    2707 WTU1 4622 TIP3 OH2  OT    -0.834000       15.9994           0
    2708 WTU1 4622 TIP3 H1   HT     0.417000        1.0079           0
    2709 WTU1 4622 TIP3 H2   HT     0.417000        1.0079           0
    2710 WTU1 4628 TIP3 OH2  OT    -0.834000       15.9994           0
    2711 WTU1 4628 TIP3 H1   HT     0.417000        1.0079           0
    2712 WTU1 4628 TIP3 H2   HT     0.417000        1.0079           0
    2713 WTU1 4629 TIP3 OH2  OT    -0.834000       15.9994           0
    2714 WTU1 4629 TIP3 H1   HT     0.417000        1.0079           0
    2715 WTU1 4629 TIP3 H2   HT     0.417000        1.0079           0
    2716 WTU1 4641 TIP3 OH2  OT    -0.834000       15.9994           0
    2717 WTU1 4641 TIP3 H1   HT     0.417000        1.0079           0
    2718 WTU1 4641 TIP3 H2   HT     0.417000        1.0079           0
    2719 WTU1 4643 TIP3 OH2  OT    -0.834000       15.9994           0
    2720 WTU1 4643 TIP3 H1   HT     0.417000        1.0079           0
    2721 WTU1 4643 TIP3 H2   HT     0.417000        1.0079           0
    2722 WTU1 4644 TIP3 OH2  OT    -0.834000       15.9994           0
    2723 WTU1 4644 TIP3 H1   HT     0.417000        1.0079           0
    2724 WTU1 4644 TIP3 H2   HT     0.417000        1.0079           0
    2725 WTU1 4645 TIP3 OH2  OT    -0.834000       15.9994           0
    2726 WTU1 4645 TIP3 H1   HT     0.417000        1.0079           0
    2727 WTU1 4645 TIP3 H2   HT     0.417000        1.0079           0
    2728 WTU1 4648 TIP3 OH2  OT    -0.834000       15.9994           0
    2729 WTU1 4648 TIP3 H1   HT     0.417000        1.0079           0
    2730 WTU1 4648 TIP3 H2   HT     0.417000        1.0079           0
    2731 WTU1 4661 TIP3 OH2  OT    -0.834000       15.9994           0
    2732 WTU1 4661 TIP3 H1   HT     0.417000        1.0079           0
    2733 WTU1 4661 TIP3 H2   HT     0.417000        1.0079           0
    2734 WTU1 4664 TIP3 OH2  OT    -0.834000       15.9994           0
    2735 WTU1 4664 TIP3 H1   HT     0.417000        1.0079           0
    2736 WTU1 4664 TIP3 H2   HT     0.417000        1.0079           0
    2737 WTU1 4665 TIP3 OH2  OT    -0.834000       15.9994           0
    2738 WTU1 4665 TIP3 H1   HT     0.417000        1.0079           0
    2739 WTU1 4665 TIP3 H2   HT     0.417000        1.0079           0
    2740 WTU1 4685 TIP3 OH2  OT    -0.834000       15.9994           0
    2741 WTU1 4685 TIP3 H1   HT     0.417000        1.0079           0
    2742 WTU1 4685 TIP3 H2   HT     0.417000        1.0079           0
    2743 WTU1 4687 TIP3 OH2  OT    -0.834000       15.9994           0
    2744 WTU1 4687 TIP3 H1   HT     0.417000        1.0079           0
    2745 WTU1 4687 TIP3 H2   HT     0.417000        1.0079           0
    2746 WTU1 4704 TIP3 OH2  OT    -0.834000       15.9994           0
    2747 WTU1 4704 TIP3 H1   HT     0.417000        1.0079           0
    2748 WTU1 4704 TIP3 H2   HT     0.417000        1.0079           0
    2749 WTU1 4705 TIP3 OH2  OT    -0.834000       15.9994           0
    2750 WTU1 4705 TIP3 H1   HT     0.417000        1.0079           0
    2751 WTU1 4705 TIP3 H2   HT     0.417000        1.0079           0
    2752 WTU1 4710 TIP3 OH2  OT    -0.834000       15.9994           0
    2753 WTU1 4710 TIP3 H1   HT     0.417000        1.0079           0
    2754 WTU1 4710 TIP3 H2   HT     0.417000        1.0079           0
    2755 WTU1 4725 TIP3 OH2  OT    -0.834000       15.9994           0
    2756 WTU1 4725 TIP3 H1   HT     0.417000        1.0079           0
    2757 WTU1 4725 TIP3 H2   HT     0.417000        1.0079           0
    2758 WTU1 4727 TIP3 OH2  OT    -0.834000       15.9994           0
    2759 WTU1 4727 TIP3 H1   HT     0.417000        1.0079           0
    2760 WTU1 4727 TIP3 H2   HT     0.417000        1.0079           0
    2761 WTU1 4732 TIP3 OH2  OT    -0.834000       15.9994           0
    2762 WTU1 4732 TIP3 H1   HT     0.417000        1.0079           0
    2763 WTU1 4732 TIP3 H2   HT     0.417000        1.0079           0
    2764 WTU1 4748 TIP3 OH2  OT    -0.834000       15.9994           0
    2765 WTU1 4748 TIP3 H1   HT     0.417000        1.0079           0
    2766 WTU1 4748 TIP3 H2   HT     0.417000        1.0079           0
    2767 WTU1 4750 TIP3 OH2  OT    -0.834000       15.9994           0
    2768 WTU1 4750 TIP3 H1   HT     0.417000        1.0079           0
    2769 WTU1 4750 TIP3 H2   HT     0.417000        1.0079           0
    2770 WTU1 4751 TIP3 OH2  OT    -0.834000       15.9994           0
    2771 WTU1 4751 TIP3 H1   HT     0.417000        1.0079           0
    2772 WTU1 4751 TIP3 H2   HT     0.417000        1.0079           0
    2773 WTU1 4767 TIP3 OH2  OT    -0.834000       15.9994           0
    2774 WTU1 4767 TIP3 H1   HT     0.417000        1.0079           0
    2775 WTU1 4767 TIP3 H2   HT     0.417000        1.0079           0
    2776 WTU1 4768 TIP3 OH2  OT    -0.834000       15.9994           0
    2777 WTU1 4768 TIP3 H1   HT     0.417000        1.0079           0
    2778 WTU1 4768 TIP3 H2   HT     0.417000        1.0079           0
    2779 WTU1 4787 TIP3 OH2  OT    -0.834000       15.9994           0
    2780 WTU1 4787 TIP3 H1   HT     0.417000        1.0079           0
    2781 WTU1 4787 TIP3 H2   HT     0.417000        1.0079           0
    2782 WTU1 4788 TIP3 OH2  OT    -0.834000       15.9994           0
    2783 WTU1 4788 TIP3 H1   HT     0.417000        1.0079           0
    2784 WTU1 4788 TIP3 H2   HT     0.417000        1.0079           0
    2785 WTU1 4790 TIP3 OH2  OT    -0.834000       15.9994           0
    2786 WTU1 4790 TIP3 H1   HT     0.417000        1.0079           0
    2787 WTU1 4790 TIP3 H2   HT     0.417000        1.0079           0
    2788 WTU1 4791 TIP3 OH2  OT    -0.834000       15.9994           0
    2789 WTU1 4791 TIP3 H1   HT     0.417000        1.0079           0
    2790 WTU1 4791 TIP3 H2   HT     0.417000        1.0079           0
    2791 WTU1 4806 TIP3 OH2  OT    -0.834000       15.9994           0
    2792 WTU1 4806 TIP3 H1   HT     0.417000        1.0079           0
    2793 WTU1 4806 TIP3 H2   HT     0.417000        1.0079           0
    2794 WTU1 4808 TIP3 OH2  OT    -0.834000       15.9994           0
    2795 WTU1 4808 TIP3 H1   HT     0.417000        1.0079           0
    2796 WTU1 4808 TIP3 H2   HT     0.417000        1.0079           0
    2797 WTU1 4809 TIP3 OH2  OT    -0.834000       15.9994           0
    2798 WTU1 4809 TIP3 H1   HT     0.417000        1.0079           0
    2799 WTU1 4809 TIP3 H2   HT     0.417000        1.0079           0
    2800 WTU1 4812 TIP3 OH2  OT    -0.834000       15.9994           0
    2801 WTU1 4812 TIP3 H1   HT     0.417000        1.0079           0
    2802 WTU1 4812 TIP3 H2   HT     0.417000        1.0079           0
    2803 WTU1 4813 TIP3 OH2  OT    -0.834000       15.9994           0
    2804 WTU1 4813 TIP3 H1   HT     0.417000        1.0079           0
    2805 WTU1 4813 TIP3 H2   HT     0.417000        1.0079           0
    2806 WTU1 4832 TIP3 OH2  OT    -0.834000       15.9994           0
    2807 WTU1 4832 TIP3 H1   HT     0.417000        1.0079           0
    2808 WTU1 4832 TIP3 H2   HT     0.417000        1.0079           0
    2809 WTU1 4833 TIP3 OH2  OT    -0.834000       15.9994           0
    2810 WTU1 4833 TIP3 H1   HT     0.417000        1.0079           0
    2811 WTU1 4833 TIP3 H2   HT     0.417000        1.0079           0
    2812 WTU1 4834 TIP3 OH2  OT    -0.834000       15.9994           0
    2813 WTU1 4834 TIP3 H1   HT     0.417000        1.0079           0
    2814 WTU1 4834 TIP3 H2   HT     0.417000        1.0079           0
    2815 WTU1 4835 TIP3 OH2  OT    -0.834000       15.9994           0
    2816 WTU1 4835 TIP3 H1   HT     0.417000        1.0079           0
    2817 WTU1 4835 TIP3 H2   HT     0.417000        1.0079           0
    2818 WTU1 4836 TIP3 OH2  OT    -0.834000       15.9994           0
    2819 WTU1 4836 TIP3 H1   HT     0.417000        1.0079           0
    2820 WTU1 4836 TIP3 H2   HT     0.417000        1.0079           0
    2821 WTU1 4839 TIP3 OH2  OT    -0.834000       15.9994           0
    2822 WTU1 4839 TIP3 H1   HT     0.417000        1.0079           0
    2823 WTU1 4839 TIP3 H2   HT     0.417000        1.0079           0
    2824 WTU1 4849 TIP3 OH2  OT    -0.834000       15.9994           0
    2825 WTU1 4849 TIP3 H1   HT     0.417000        1.0079           0
    2826 WTU1 4849 TIP3 H2   HT     0.417000        1.0079           0
    2827 WTU1 4851 TIP3 OH2  OT    -0.834000       15.9994           0
    2828 WTU1 4851 TIP3 H1   HT     0.417000        1.0079           0
    2829 WTU1 4851 TIP3 H2   HT     0.417000        1.0079           0
    2830 WTU1 4852 TIP3 OH2  OT    -0.834000       15.9994           0
    2831 WTU1 4852 TIP3 H1   HT     0.417000        1.0079           0
    2832 WTU1 4852 TIP3 H2   HT     0.417000        1.0079           0
    2833 WTU1 4853 TIP3 OH2  OT    -0.834000       15.9994           0
    2834 WTU1 4853 TIP3 H1   HT     0.417000        1.0079           0
    2835 WTU1 4853 TIP3 H2   HT     0.417000        1.0079           0
    2836 WTU1 4872 TIP3 OH2  OT    -0.834000       15.9994           0
    2837 WTU1 4872 TIP3 H1   HT     0.417000        1.0079           0
    2838 WTU1 4872 TIP3 H2   HT     0.417000        1.0079           0
    2839 WTU1 4875 TIP3 OH2  OT    -0.834000       15.9994           0
    2840 WTU1 4875 TIP3 H1   HT     0.417000        1.0079           0
    2841 WTU1 4875 TIP3 H2   HT     0.417000        1.0079           0
    2842 WTU1 4876 TIP3 OH2  OT    -0.834000       15.9994           0
    2843 WTU1 4876 TIP3 H1   HT     0.417000        1.0079           0
    2844 WTU1 4876 TIP3 H2   HT     0.417000        1.0079           0
    2845 WTU1 4890 TIP3 OH2  OT    -0.834000       15.9994           0
    2846 WTU1 4890 TIP3 H1   HT     0.417000        1.0079           0
    2847 WTU1 4890 TIP3 H2   HT     0.417000        1.0079           0
    2848 WTU1 4893 TIP3 OH2  OT    -0.834000       15.9994           0
    2849 WTU1 4893 TIP3 H1   HT     0.417000        1.0079           0
    2850 WTU1 4893 TIP3 H2   HT     0.417000        1.0079           0
    2851 WTU1 4897 TIP3 OH2  OT    -0.834000       15.9994           0
    2852 WTU1 4897 TIP3 H1   HT     0.417000        1.0079           0
    2853 WTU1 4897 TIP3 H2   HT     0.417000        1.0079           0
    2854 WTU1 4898 TIP3 OH2  OT    -0.834000       15.9994           0
    2855 WTU1 4898 TIP3 H1   HT     0.417000        1.0079           0
    2856 WTU1 4898 TIP3 H2   HT     0.417000        1.0079           0
    2857 WTU1 4904 TIP3 OH2  OT    -0.834000       15.9994           0
    2858 WTU1 4904 TIP3 H1   HT     0.417000        1.0079           0
    2859 WTU1 4904 TIP3 H2   HT     0.417000        1.0079           0
    2860 WTU1 4914 TIP3 OH2  OT    -0.834000       15.9994           0
    2861 WTU1 4914 TIP3 H1   HT     0.417000        1.0079           0
    2862 WTU1 4914 TIP3 H2   HT     0.417000        1.0079           0
    2863 WTU1 4915 TIP3 OH2  OT    -0.834000       15.9994           0
    2864 WTU1 4915 TIP3 H1   HT     0.417000        1.0079           0
    2865 WTU1 4915 TIP3 H2   HT     0.417000        1.0079           0
    2866 WTU1 4916 TIP3 OH2  OT    -0.834000       15.9994           0
    2867 WTU1 4916 TIP3 H1   HT     0.417000        1.0079           0
    2868 WTU1 4916 TIP3 H2   HT     0.417000        1.0079           0
    2869 WTU1 4918 TIP3 OH2  OT    -0.834000       15.9994           0
    2870 WTU1 4918 TIP3 H1   HT     0.417000        1.0079           0
    2871 WTU1 4918 TIP3 H2   HT     0.417000        1.0079           0
    2872 WTU1 4922 TIP3 OH2  OT    -0.834000       15.9994           0
    2873 WTU1 4922 TIP3 H1   HT     0.417000        1.0079           0
    2874 WTU1 4922 TIP3 H2   HT     0.417000        1.0079           0
    2875 WTU1 4934 TIP3 OH2  OT    -0.834000       15.9994           0
    2876 WTU1 4934 TIP3 H1   HT     0.417000        1.0079           0
    2877 WTU1 4934 TIP3 H2   HT     0.417000        1.0079           0
    2878 WTU1 4936 TIP3 OH2  OT    -0.834000       15.9994           0
    2879 WTU1 4936 TIP3 H1   HT     0.417000        1.0079           0
    2880 WTU1 4936 TIP3 H2   HT     0.417000        1.0079           0
    2881 WTU1 4937 TIP3 OH2  OT    -0.834000       15.9994           0
    2882 WTU1 4937 TIP3 H1   HT     0.417000        1.0079           0
    2883 WTU1 4937 TIP3 H2   HT     0.417000        1.0079           0
    2884 WTU1 4939 TIP3 OH2  OT    -0.834000       15.9994           0
    2885 WTU1 4939 TIP3 H1   HT     0.417000        1.0079           0
    2886 WTU1 4939 TIP3 H2   HT     0.417000        1.0079           0
    2887 WTU1 4942 TIP3 OH2  OT    -0.834000       15.9994           0
    2888 WTU1 4942 TIP3 H1   HT     0.417000        1.0079           0
    2889 WTU1 4942 TIP3 H2   HT     0.417000        1.0079           0
    2890 WTU1 4956 TIP3 OH2  OT    -0.834000       15.9994           0
    2891 WTU1 4956 TIP3 H1   HT     0.417000        1.0079           0
    2892 WTU1 4956 TIP3 H2   HT     0.417000        1.0079           0
    2893 WTU1 4957 TIP3 OH2  OT    -0.834000       15.9994           0
    2894 WTU1 4957 TIP3 H1   HT     0.417000        1.0079           0
    2895 WTU1 4957 TIP3 H2   HT     0.417000        1.0079           0
    2896 WTU1 4962 TIP3 OH2  OT    -0.834000       15.9994           0
    2897 WTU1 4962 TIP3 H1   HT     0.417000        1.0079           0
    2898 WTU1 4962 TIP3 H2   HT     0.417000        1.0079           0
    2899 WTU1 4980 TIP3 OH2  OT    -0.834000       15.9994           0
    2900 WTU1 4980 TIP3 H1   HT     0.417000        1.0079           0
    2901 WTU1 4980 TIP3 H2   HT     0.417000        1.0079           0
    2902 WTU1 4982 TIP3 OH2  OT    -0.834000       15.9994           0
    2903 WTU1 4982 TIP3 H1   HT     0.417000        1.0079           0
    2904 WTU1 4982 TIP3 H2   HT     0.417000        1.0079           0
    2905 WTU1 4996 TIP3 OH2  OT    -0.834000       15.9994           0
    2906 WTU1 4996 TIP3 H1   HT     0.417000        1.0079           0
    2907 WTU1 4996 TIP3 H2   HT     0.417000        1.0079           0
    2908 WTU1 4998 TIP3 OH2  OT    -0.834000       15.9994           0
    2909 WTU1 4998 TIP3 H1   HT     0.417000        1.0079           0
    2910 WTU1 4998 TIP3 H2   HT     0.417000        1.0079           0
    2911 WTU1 5002 TIP3 OH2  OT    -0.834000       15.9994           0
    2912 WTU1 5002 TIP3 H1   HT     0.417000        1.0079           0
    2913 WTU1 5002 TIP3 H2   HT     0.417000        1.0079           0
    2914 WTU1 5004 TIP3 OH2  OT    -0.834000       15.9994           0
    2915 WTU1 5004 TIP3 H1   HT     0.417000        1.0079           0
    2916 WTU1 5004 TIP3 H2   HT     0.417000        1.0079           0
    2917 WTU1 5005 TIP3 OH2  OT    -0.834000       15.9994           0
    2918 WTU1 5005 TIP3 H1   HT     0.417000        1.0079           0
    2919 WTU1 5005 TIP3 H2   HT     0.417000        1.0079           0
    2920 WTU1 5019 TIP3 OH2  OT    -0.834000       15.9994           0
    2921 WTU1 5019 TIP3 H1   HT     0.417000        1.0079           0
    2922 WTU1 5019 TIP3 H2   HT     0.417000        1.0079           0
    2923 WTU1 5021 TIP3 OH2  OT    -0.834000       15.9994           0
    2924 WTU1 5021 TIP3 H1   HT     0.417000        1.0079           0
    2925 WTU1 5021 TIP3 H2   HT     0.417000        1.0079           0
    2926 WTU1 5023 TIP3 OH2  OT    -0.834000       15.9994           0
    2927 WTU1 5023 TIP3 H1   HT     0.417000        1.0079           0
    2928 WTU1 5023 TIP3 H2   HT     0.417000        1.0079           0
    2929 WTU1 5040 TIP3 OH2  OT    -0.834000       15.9994           0
    2930 WTU1 5040 TIP3 H1   HT     0.417000        1.0079           0
    2931 WTU1 5040 TIP3 H2   HT     0.417000        1.0079           0
    2932 WTU1 5043 TIP3 OH2  OT    -0.834000       15.9994           0
    2933 WTU1 5043 TIP3 H1   HT     0.417000        1.0079           0
    2934 WTU1 5043 TIP3 H2   HT     0.417000        1.0079           0
    2935 WTU1 5044 TIP3 OH2  OT    -0.834000       15.9994           0
    2936 WTU1 5044 TIP3 H1   HT     0.417000        1.0079           0
    2937 WTU1 5044 TIP3 H2   HT     0.417000        1.0079           0
    2938 WTU1 5060 TIP3 OH2  OT    -0.834000       15.9994           0
    2939 WTU1 5060 TIP3 H1   HT     0.417000        1.0079           0
    2940 WTU1 5060 TIP3 H2   HT     0.417000        1.0079           0
    2941 WTU1 5061 TIP3 OH2  OT    -0.834000       15.9994           0
    2942 WTU1 5061 TIP3 H1   HT     0.417000        1.0079           0
    2943 WTU1 5061 TIP3 H2   HT     0.417000        1.0079           0
    2944 WTU1 5063 TIP3 OH2  OT    -0.834000       15.9994           0
    2945 WTU1 5063 TIP3 H1   HT     0.417000        1.0079           0
    2946 WTU1 5063 TIP3 H2   HT     0.417000        1.0079           0
    2947 WTU1 5064 TIP3 OH2  OT    -0.834000       15.9994           0
    2948 WTU1 5064 TIP3 H1   HT     0.417000        1.0079           0
    2949 WTU1 5064 TIP3 H2   HT     0.417000        1.0079           0
    2950 WTU1 5085 TIP3 OH2  OT    -0.834000       15.9994           0
    2951 WTU1 5085 TIP3 H1   HT     0.417000        1.0079           0
    2952 WTU1 5085 TIP3 H2   HT     0.417000        1.0079           0
    2953 WTU1 5091 TIP3 OH2  OT    -0.834000       15.9994           0
    2954 WTU1 5091 TIP3 H1   HT     0.417000        1.0079           0
    2955 WTU1 5091 TIP3 H2   HT     0.417000        1.0079           0
    2956 WTU1 5108 TIP3 OH2  OT    -0.834000       15.9994           0
    2957 WTU1 5108 TIP3 H1   HT     0.417000        1.0079           0
    2958 WTU1 5108 TIP3 H2   HT     0.417000        1.0079           0
    2959 WTU1 5109 TIP3 OH2  OT    -0.834000       15.9994           0
    2960 WTU1 5109 TIP3 H1   HT     0.417000        1.0079           0
    2961 WTU1 5109 TIP3 H2   HT     0.417000        1.0079           0
    2962 WTU1 5126 TIP3 OH2  OT    -0.834000       15.9994           0
    2963 WTU1 5126 TIP3 H1   HT     0.417000        1.0079           0
    2964 WTU1 5126 TIP3 H2   HT     0.417000        1.0079           0
    2965 WTU1 5127 TIP3 OH2  OT    -0.834000       15.9994           0
    2966 WTU1 5127 TIP3 H1   HT     0.417000        1.0079           0
    2967 WTU1 5127 TIP3 H2   HT     0.417000        1.0079           0
    2968 WTU1 5128 TIP3 OH2  OT    -0.834000       15.9994           0
    2969 WTU1 5128 TIP3 H1   HT     0.417000        1.0079           0
    2970 WTU1 5128 TIP3 H2   HT     0.417000        1.0079           0
    2971 WTU1 5130 TIP3 OH2  OT    -0.834000       15.9994           0
    2972 WTU1 5130 TIP3 H1   HT     0.417000        1.0079           0
    2973 WTU1 5130 TIP3 H2   HT     0.417000        1.0079           0
    2974 WTU1 5146 TIP3 OH2  OT    -0.834000       15.9994           0
    2975 WTU1 5146 TIP3 H1   HT     0.417000        1.0079           0
    2976 WTU1 5146 TIP3 H2   HT     0.417000        1.0079           0
    2977 WTU1 5147 TIP3 OH2  OT    -0.834000       15.9994           0
    2978 WTU1 5147 TIP3 H1   HT     0.417000        1.0079           0
    2979 WTU1 5147 TIP3 H2   HT     0.417000        1.0079           0
    2980 WTU1 5148 TIP3 OH2  OT    -0.834000       15.9994           0
    2981 WTU1 5148 TIP3 H1   HT     0.417000        1.0079           0
    2982 WTU1 5148 TIP3 H2   HT     0.417000        1.0079           0
    2983 WTU1 5149 TIP3 OH2  OT    -0.834000       15.9994           0
    2984 WTU1 5149 TIP3 H1   HT     0.417000        1.0079           0
    2985 WTU1 5149 TIP3 H2   HT     0.417000        1.0079           0
    2986 WTU1 5162 TIP3 OH2  OT    -0.834000       15.9994           0
    2987 WTU1 5162 TIP3 H1   HT     0.417000        1.0079           0
    2988 WTU1 5162 TIP3 H2   HT     0.417000        1.0079           0
    2989 WTU1 5165 TIP3 OH2  OT    -0.834000       15.9994           0
    2990 WTU1 5165 TIP3 H1   HT     0.417000        1.0079           0
    2991 WTU1 5165 TIP3 H2   HT     0.417000        1.0079           0
    2992 WTU1 5166 TIP3 OH2  OT    -0.834000       15.9994           0
    2993 WTU1 5166 TIP3 H1   HT     0.417000        1.0079           0
    2994 WTU1 5166 TIP3 H2   HT     0.417000        1.0079           0
    2995 WTU1 5168 TIP3 OH2  OT    -0.834000       15.9994           0
    2996 WTU1 5168 TIP3 H1   HT     0.417000        1.0079           0
    2997 WTU1 5168 TIP3 H2   HT     0.417000        1.0079           0
    2998 WTU1 5186 TIP3 OH2  OT    -0.834000       15.9994           0
    2999 WTU1 5186 TIP3 H1   HT     0.417000        1.0079           0
    3000 WTU1 5186 TIP3 H2   HT     0.417000        1.0079           0
    3001 WTU1 5188 TIP3 OH2  OT    -0.834000       15.9994           0
    3002 WTU1 5188 TIP3 H1   HT     0.417000        1.0079           0
    3003 WTU1 5188 TIP3 H2   HT     0.417000        1.0079           0
    3004 WTU1 5189 TIP3 OH2  OT    -0.834000       15.9994           0
    3005 WTU1 5189 TIP3 H1   HT     0.417000        1.0079           0
    3006 WTU1 5189 TIP3 H2   HT     0.417000        1.0079           0
    3007 WTU1 5190 TIP3 OH2  OT    -0.834000       15.9994           0
    3008 WTU1 5190 TIP3 H1   HT     0.417000        1.0079           0
    3009 WTU1 5190 TIP3 H2   HT     0.417000        1.0079           0
    3010 WTU1 5193 TIP3 OH2  OT    -0.834000       15.9994           0
    3011 WTU1 5193 TIP3 H1   HT     0.417000        1.0079           0
    3012 WTU1 5193 TIP3 H2   HT     0.417000        1.0079           0
    3013 WTU1 5206 TIP3 OH2  OT    -0.834000       15.9994           0
    3014 WTU1 5206 TIP3 H1   HT     0.417000        1.0079           0
    3015 WTU1 5206 TIP3 H2   HT     0.417000        1.0079           0
    3016 WTU1 5214 TIP3 OH2  OT    -0.834000       15.9994           0
    3017 WTU1 5214 TIP3 H1   HT     0.417000        1.0079           0
    3018 WTU1 5214 TIP3 H2   HT     0.417000        1.0079           0
    3019 WTU1 5230 TIP3 OH2  OT    -0.834000       15.9994           0
    3020 WTU1 5230 TIP3 H1   HT     0.417000        1.0079           0
    3021 WTU1 5230 TIP3 H2   HT     0.417000        1.0079           0
    3022 WTU1 5231 TIP3 OH2  OT    -0.834000       15.9994           0
    3023 WTU1 5231 TIP3 H1   HT     0.417000        1.0079           0
    3024 WTU1 5231 TIP3 H2   HT     0.417000        1.0079           0
    3025 WTU1 5251 TIP3 OH2  OT    -0.834000       15.9994           0
    3026 WTU1 5251 TIP3 H1   HT     0.417000        1.0079           0
    3027 WTU1 5251 TIP3 H2   HT     0.417000        1.0079           0
    3028 WTU1 5253 TIP3 OH2  OT    -0.834000       15.9994           0
    3029 WTU1 5253 TIP3 H1   HT     0.417000        1.0079           0
    3030 WTU1 5253 TIP3 H2   HT     0.417000        1.0079           0
    3031 WTU1 5255 TIP3 OH2  OT    -0.834000       15.9994           0
    3032 WTU1 5255 TIP3 H1   HT     0.417000        1.0079           0
    3033 WTU1 5255 TIP3 H2   HT     0.417000        1.0079           0
    3034 WTU1 5259 TIP3 OH2  OT    -0.834000       15.9994           0
    3035 WTU1 5259 TIP3 H1   HT     0.417000        1.0079           0
    3036 WTU1 5259 TIP3 H2   HT     0.417000        1.0079           0
    3037 WTU1 5270 TIP3 OH2  OT    -0.834000       15.9994           0
    3038 WTU1 5270 TIP3 H1   HT     0.417000        1.0079           0
    3039 WTU1 5270 TIP3 H2   HT     0.417000        1.0079           0
    3040 WTU1 5271 TIP3 OH2  OT    -0.834000       15.9994           0
    3041 WTU1 5271 TIP3 H1   HT     0.417000        1.0079           0
    3042 WTU1 5271 TIP3 H2   HT     0.417000        1.0079           0
    3043 WTU1 5272 TIP3 OH2  OT    -0.834000       15.9994           0
    3044 WTU1 5272 TIP3 H1   HT     0.417000        1.0079           0
    3045 WTU1 5272 TIP3 H2   HT     0.417000        1.0079           0
    3046 WTU1 5274 TIP3 OH2  OT    -0.834000       15.9994           0
    3047 WTU1 5274 TIP3 H1   HT     0.417000        1.0079           0
    3048 WTU1 5274 TIP3 H2   HT     0.417000        1.0079           0
    3049 WTU1 5277 TIP3 OH2  OT    -0.834000       15.9994           0
    3050 WTU1 5277 TIP3 H1   HT     0.417000        1.0079           0
    3051 WTU1 5277 TIP3 H2   HT     0.417000        1.0079           0
    3052 WTU1 5278 TIP3 OH2  OT    -0.834000       15.9994           0
    3053 WTU1 5278 TIP3 H1   HT     0.417000        1.0079           0
    3054 WTU1 5278 TIP3 H2   HT     0.417000        1.0079           0
    3055 WTU1 5293 TIP3 OH2  OT    -0.834000       15.9994           0
    3056 WTU1 5293 TIP3 H1   HT     0.417000        1.0079           0
    3057 WTU1 5293 TIP3 H2   HT     0.417000        1.0079           0
    3058 WTU1 5295 TIP3 OH2  OT    -0.834000       15.9994           0
    3059 WTU1 5295 TIP3 H1   HT     0.417000        1.0079           0
    3060 WTU1 5295 TIP3 H2   HT     0.417000        1.0079           0
    3061 WTU1 5296 TIP3 OH2  OT    -0.834000       15.9994           0
    3062 WTU1 5296 TIP3 H1   HT     0.417000        1.0079           0
    3063 WTU1 5296 TIP3 H2   HT     0.417000        1.0079           0
    3064 WTU1 5315 TIP3 OH2  OT    -0.834000       15.9994           0
    3065 WTU1 5315 TIP3 H1   HT     0.417000        1.0079           0
    3066 WTU1 5315 TIP3 H2   HT     0.417000        1.0079           0
    3067 WTU1 5317 TIP3 OH2  OT    -0.834000       15.9994           0
    3068 WTU1 5317 TIP3 H1   HT     0.417000        1.0079           0
    3069 WTU1 5317 TIP3 H2   HT     0.417000        1.0079           0
    3070 WTU1 5319 TIP3 OH2  OT    -0.834000       15.9994           0
    3071 WTU1 5319 TIP3 H1   HT     0.417000        1.0079           0
    3072 WTU1 5319 TIP3 H2   HT     0.417000        1.0079           0
    3073 WTU1 5335 TIP3 OH2  OT    -0.834000       15.9994           0
    3074 WTU1 5335 TIP3 H1   HT     0.417000        1.0079           0
    3075 WTU1 5335 TIP3 H2   HT     0.417000        1.0079           0
    3076 WTU1 5336 TIP3 OH2  OT    -0.834000       15.9994           0
    3077 WTU1 5336 TIP3 H1   HT     0.417000        1.0079           0
    3078 WTU1 5336 TIP3 H2   HT     0.417000        1.0079           0
    3079 WTU1 5339 TIP3 OH2  OT    -0.834000       15.9994           0
    3080 WTU1 5339 TIP3 H1   HT     0.417000        1.0079           0
    3081 WTU1 5339 TIP3 H2   HT     0.417000        1.0079           0
    3082 WTU1 5355 TIP3 OH2  OT    -0.834000       15.9994           0
    3083 WTU1 5355 TIP3 H1   HT     0.417000        1.0079           0
    3084 WTU1 5355 TIP3 H2   HT     0.417000        1.0079           0
    3085 WTU1 5356 TIP3 OH2  OT    -0.834000       15.9994           0
    3086 WTU1 5356 TIP3 H1   HT     0.417000        1.0079           0
    3087 WTU1 5356 TIP3 H2   HT     0.417000        1.0079           0
    3088 WTU1 5357 TIP3 OH2  OT    -0.834000       15.9994           0
    3089 WTU1 5357 TIP3 H1   HT     0.417000        1.0079           0
    3090 WTU1 5357 TIP3 H2   HT     0.417000        1.0079           0
    3091 WTU1 5358 TIP3 OH2  OT    -0.834000       15.9994           0
    3092 WTU1 5358 TIP3 H1   HT     0.417000        1.0079           0
    3093 WTU1 5358 TIP3 H2   HT     0.417000        1.0079           0
    3094 WTU1 5359 TIP3 OH2  OT    -0.834000       15.9994           0
    3095 WTU1 5359 TIP3 H1   HT     0.417000        1.0079           0
    3096 WTU1 5359 TIP3 H2   HT     0.417000        1.0079           0
    3097 WTU1 5360 TIP3 OH2  OT    -0.834000       15.9994           0
    3098 WTU1 5360 TIP3 H1   HT     0.417000        1.0079           0
    3099 WTU1 5360 TIP3 H2   HT     0.417000        1.0079           0
    3100 WTU1 5375 TIP3 OH2  OT    -0.834000       15.9994           0
    3101 WTU1 5375 TIP3 H1   HT     0.417000        1.0079           0
    3102 WTU1 5375 TIP3 H2   HT     0.417000        1.0079           0
    3103 WTU1 5377 TIP3 OH2  OT    -0.834000       15.9994           0
    3104 WTU1 5377 TIP3 H1   HT     0.417000        1.0079           0
    3105 WTU1 5377 TIP3 H2   HT     0.417000        1.0079           0
    3106 WTU1 5378 TIP3 OH2  OT    -0.834000       15.9994           0
    3107 WTU1 5378 TIP3 H1   HT     0.417000        1.0079           0
    3108 WTU1 5378 TIP3 H2   HT     0.417000        1.0079           0
    3109 WTU1 5380 TIP3 OH2  OT    -0.834000       15.9994           0
    3110 WTU1 5380 TIP3 H1   HT     0.417000        1.0079           0
    3111 WTU1 5380 TIP3 H2   HT     0.417000        1.0079           0
    3112 WTU1 5383 TIP3 OH2  OT    -0.834000       15.9994           0
    3113 WTU1 5383 TIP3 H1   HT     0.417000        1.0079           0
    3114 WTU1 5383 TIP3 H2   HT     0.417000        1.0079           0
    3115 WTU1 5393 TIP3 OH2  OT    -0.834000       15.9994           0
    3116 WTU1 5393 TIP3 H1   HT     0.417000        1.0079           0
    3117 WTU1 5393 TIP3 H2   HT     0.417000        1.0079           0
    3118 WTU1 5396 TIP3 OH2  OT    -0.834000       15.9994           0
    3119 WTU1 5396 TIP3 H1   HT     0.417000        1.0079           0
    3120 WTU1 5396 TIP3 H2   HT     0.417000        1.0079           0
    3121 WTU1 5404 TIP3 OH2  OT    -0.834000       15.9994           0
    3122 WTU1 5404 TIP3 H1   HT     0.417000        1.0079           0
    3123 WTU1 5404 TIP3 H2   HT     0.417000        1.0079           0
    3124 WTU1 5418 TIP3 OH2  OT    -0.834000       15.9994           0
    3125 WTU1 5418 TIP3 H1   HT     0.417000        1.0079           0
    3126 WTU1 5418 TIP3 H2   HT     0.417000        1.0079           0
    3127 WTU1 5419 TIP3 OH2  OT    -0.834000       15.9994           0
    3128 WTU1 5419 TIP3 H1   HT     0.417000        1.0079           0
    3129 WTU1 5419 TIP3 H2   HT     0.417000        1.0079           0
    3130 WTU1 5422 TIP3 OH2  OT    -0.834000       15.9994           0
    3131 WTU1 5422 TIP3 H1   HT     0.417000        1.0079           0
    3132 WTU1 5422 TIP3 H2   HT     0.417000        1.0079           0
    3133 WTU1 5426 TIP3 OH2  OT    -0.834000       15.9994           0
    3134 WTU1 5426 TIP3 H1   HT     0.417000        1.0079           0
    3135 WTU1 5426 TIP3 H2   HT     0.417000        1.0079           0
    3136 WTU1 5434 TIP3 OH2  OT    -0.834000       15.9994           0
    3137 WTU1 5434 TIP3 H1   HT     0.417000        1.0079           0
    3138 WTU1 5434 TIP3 H2   HT     0.417000        1.0079           0
    3139 WTU1 5440 TIP3 OH2  OT    -0.834000       15.9994           0
    3140 WTU1 5440 TIP3 H1   HT     0.417000        1.0079           0
    3141 WTU1 5440 TIP3 H2   HT     0.417000        1.0079           0
    3142 WTU1 5442 TIP3 OH2  OT    -0.834000       15.9994           0
    3143 WTU1 5442 TIP3 H1   HT     0.417000        1.0079           0
    3144 WTU1 5442 TIP3 H2   HT     0.417000        1.0079           0
    3145 WTU1 5444 TIP3 OH2  OT    -0.834000       15.9994           0
    3146 WTU1 5444 TIP3 H1   HT     0.417000        1.0079           0
    3147 WTU1 5444 TIP3 H2   HT     0.417000        1.0079           0
    3148 WTU1 5445 TIP3 OH2  OT    -0.834000       15.9994           0
    3149 WTU1 5445 TIP3 H1   HT     0.417000        1.0079           0
    3150 WTU1 5445 TIP3 H2   HT     0.417000        1.0079           0
    3151 WTU1 5446 TIP3 OH2  OT    -0.834000       15.9994           0
    3152 WTU1 5446 TIP3 H1   HT     0.417000        1.0079           0
    3153 WTU1 5446 TIP3 H2   HT     0.417000        1.0079           0
    3154 WTU1 5460 TIP3 OH2  OT    -0.834000       15.9994           0
    3155 WTU1 5460 TIP3 H1   HT     0.417000        1.0079           0
    3156 WTU1 5460 TIP3 H2   HT     0.417000        1.0079           0
    3157 WTU1 5461 TIP3 OH2  OT    -0.834000       15.9994           0
    3158 WTU1 5461 TIP3 H1   HT     0.417000        1.0079           0
    3159 WTU1 5461 TIP3 H2   HT     0.417000        1.0079           0
    3160 WTU1 5462 TIP3 OH2  OT    -0.834000       15.9994           0
    3161 WTU1 5462 TIP3 H1   HT     0.417000        1.0079           0
    3162 WTU1 5462 TIP3 H2   HT     0.417000        1.0079           0
    3163 WTU1 5463 TIP3 OH2  OT    -0.834000       15.9994           0
    3164 WTU1 5463 TIP3 H1   HT     0.417000        1.0079           0
    3165 WTU1 5463 TIP3 H2   HT     0.417000        1.0079           0
    3166 WTU1 5466 TIP3 OH2  OT    -0.834000       15.9994           0
    3167 WTU1 5466 TIP3 H1   HT     0.417000        1.0079           0
    3168 WTU1 5466 TIP3 H2   HT     0.417000        1.0079           0
    3169 WTU1 5481 TIP3 OH2  OT    -0.834000       15.9994           0
    3170 WTU1 5481 TIP3 H1   HT     0.417000        1.0079           0
    3171 WTU1 5481 TIP3 H2   HT     0.417000        1.0079           0
    3172 WTU1 5482 TIP3 OH2  OT    -0.834000       15.9994           0
    3173 WTU1 5482 TIP3 H1   HT     0.417000        1.0079           0
    3174 WTU1 5482 TIP3 H2   HT     0.417000        1.0079           0
    3175 WTU1 5483 TIP3 OH2  OT    -0.834000       15.9994           0
    3176 WTU1 5483 TIP3 H1   HT     0.417000        1.0079           0
    3177 WTU1 5483 TIP3 H2   HT     0.417000        1.0079           0
    3178 WTU1 5486 TIP3 OH2  OT    -0.834000       15.9994           0
    3179 WTU1 5486 TIP3 H1   HT     0.417000        1.0079           0
    3180 WTU1 5486 TIP3 H2   HT     0.417000        1.0079           0
    3181 WTU1 5507 TIP3 OH2  OT    -0.834000       15.9994           0
    3182 WTU1 5507 TIP3 H1   HT     0.417000        1.0079           0
    3183 WTU1 5507 TIP3 H2   HT     0.417000        1.0079           0
    3184 WTU1 5510 TIP3 OH2  OT    -0.834000       15.9994           0
    3185 WTU1 5510 TIP3 H1   HT     0.417000        1.0079           0
    3186 WTU1 5510 TIP3 H2   HT     0.417000        1.0079           0
    3187 WTU1 5522 TIP3 OH2  OT    -0.834000       15.9994           0
    3188 WTU1 5522 TIP3 H1   HT     0.417000        1.0079           0
    3189 WTU1 5522 TIP3 H2   HT     0.417000        1.0079           0
    3190 WTU1 5526 TIP3 OH2  OT    -0.834000       15.9994           0
    3191 WTU1 5526 TIP3 H1   HT     0.417000        1.0079           0
    3192 WTU1 5526 TIP3 H2   HT     0.417000        1.0079           0
    3193 WTU1 5527 TIP3 OH2  OT    -0.834000       15.9994           0
    3194 WTU1 5527 TIP3 H1   HT     0.417000        1.0079           0
    3195 WTU1 5527 TIP3 H2   HT     0.417000        1.0079           0
    3196 WTU1 5545 TIP3 OH2  OT    -0.834000       15.9994           0
    3197 WTU1 5545 TIP3 H1   HT     0.417000        1.0079           0
    3198 WTU1 5545 TIP3 H2   HT     0.417000        1.0079           0
    3199 WTU1 5547 TIP3 OH2  OT    -0.834000       15.9994           0
    3200 WTU1 5547 TIP3 H1   HT     0.417000        1.0079           0
    3201 WTU1 5547 TIP3 H2   HT     0.417000        1.0079           0
    3202 WTU1 5548 TIP3 OH2  OT    -0.834000       15.9994           0
    3203 WTU1 5548 TIP3 H1   HT     0.417000        1.0079           0
    3204 WTU1 5548 TIP3 H2   HT     0.417000        1.0079           0
    3205 WTU1 5564 TIP3 OH2  OT    -0.834000       15.9994           0
    3206 WTU1 5564 TIP3 H1   HT     0.417000        1.0079           0
    3207 WTU1 5564 TIP3 H2   HT     0.417000        1.0079           0
    3208 WTU1 5566 TIP3 OH2  OT    -0.834000       15.9994           0
    3209 WTU1 5566 TIP3 H1   HT     0.417000        1.0079           0
    3210 WTU1 5566 TIP3 H2   HT     0.417000        1.0079           0
    3211 WTU1 5567 TIP3 OH2  OT    -0.834000       15.9994           0
    3212 WTU1 5567 TIP3 H1   HT     0.417000        1.0079           0
    3213 WTU1 5567 TIP3 H2   HT     0.417000        1.0079           0
    3214 WTU1 5568 TIP3 OH2  OT    -0.834000       15.9994           0
    3215 WTU1 5568 TIP3 H1   HT     0.417000        1.0079           0
    3216 WTU1 5568 TIP3 H2   HT     0.417000        1.0079           0
    3217 WTU1 5585 TIP3 OH2  OT    -0.834000       15.9994           0
    3218 WTU1 5585 TIP3 H1   HT     0.417000        1.0079           0
    3219 WTU1 5585 TIP3 H2   HT     0.417000        1.0079           0
    3220 WTU1 5590 TIP3 OH2  OT    -0.834000       15.9994           0
    3221 WTU1 5590 TIP3 H1   HT     0.417000        1.0079           0
    3222 WTU1 5590 TIP3 H2   HT     0.417000        1.0079           0
    3223 WTU1 5591 TIP3 OH2  OT    -0.834000       15.9994           0
    3224 WTU1 5591 TIP3 H1   HT     0.417000        1.0079           0
    3225 WTU1 5591 TIP3 H2   HT     0.417000        1.0079           0
    3226 WTU1 5592 TIP3 OH2  OT    -0.834000       15.9994           0
    3227 WTU1 5592 TIP3 H1   HT     0.417000        1.0079           0
    3228 WTU1 5592 TIP3 H2   HT     0.417000        1.0079           0
    3229 WTU1 5596 TIP3 OH2  OT    -0.834000       15.9994           0
    3230 WTU1 5596 TIP3 H1   HT     0.417000        1.0079           0
    3231 WTU1 5596 TIP3 H2   HT     0.417000        1.0079           0
    3232 WTU1 5606 TIP3 OH2  OT    -0.834000       15.9994           0
    3233 WTU1 5606 TIP3 H1   HT     0.417000        1.0079           0
    3234 WTU1 5606 TIP3 H2   HT     0.417000        1.0079           0
    3235 WTU1 5607 TIP3 OH2  OT    -0.834000       15.9994           0
    3236 WTU1 5607 TIP3 H1   HT     0.417000        1.0079           0
    3237 WTU1 5607 TIP3 H2   HT     0.417000        1.0079           0
    3238 WTU1 5608 TIP3 OH2  OT    -0.834000       15.9994           0
    3239 WTU1 5608 TIP3 H1   HT     0.417000        1.0079           0
    3240 WTU1 5608 TIP3 H2   HT     0.417000        1.0079           0
    3241 WTU1 5609 TIP3 OH2  OT    -0.834000       15.9994           0
    3242 WTU1 5609 TIP3 H1   HT     0.417000        1.0079           0
    3243 WTU1 5609 TIP3 H2   HT     0.417000        1.0079           0
    3244 WTU1 5610 TIP3 OH2  OT    -0.834000       15.9994           0
    3245 WTU1 5610 TIP3 H1   HT     0.417000        1.0079           0
    3246 WTU1 5610 TIP3 H2   HT     0.417000        1.0079           0
    3247 WTU1 5612 TIP3 OH2  OT    -0.834000       15.9994           0
    3248 WTU1 5612 TIP3 H1   HT     0.417000        1.0079           0
    3249 WTU1 5612 TIP3 H2   HT     0.417000        1.0079           0
    3250 WTU1 5615 TIP3 OH2  OT    -0.834000       15.9994           0
    3251 WTU1 5615 TIP3 H1   HT     0.417000        1.0079           0
    3252 WTU1 5615 TIP3 H2   HT     0.417000        1.0079           0
    3253 WTU1 5626 TIP3 OH2  OT    -0.834000       15.9994           0
    3254 WTU1 5626 TIP3 H1   HT     0.417000        1.0079           0
    3255 WTU1 5626 TIP3 H2   HT     0.417000        1.0079           0
    3256 WTU1 5630 TIP3 OH2  OT    -0.834000       15.9994           0
    3257 WTU1 5630 TIP3 H1   HT     0.417000        1.0079           0
    3258 WTU1 5630 TIP3 H2   HT     0.417000        1.0079           0
    3259 WTU1 5631 TIP3 OH2  OT    -0.834000       15.9994           0
    3260 WTU1 5631 TIP3 H1   HT     0.417000        1.0079           0
    3261 WTU1 5631 TIP3 H2   HT     0.417000        1.0079           0
    3262 WTU1 5632 TIP3 OH2  OT    -0.834000       15.9994           0
    3263 WTU1 5632 TIP3 H1   HT     0.417000        1.0079           0
    3264 WTU1 5632 TIP3 H2   HT     0.417000        1.0079           0
    3265 WTU1 5633 TIP3 OH2  OT    -0.834000       15.9994           0
    3266 WTU1 5633 TIP3 H1   HT     0.417000        1.0079           0
    3267 WTU1 5633 TIP3 H2   HT     0.417000        1.0079           0
    3268 WTU1 5637 TIP3 OH2  OT    -0.834000       15.9994           0
    3269 WTU1 5637 TIP3 H1   HT     0.417000        1.0079           0
    3270 WTU1 5637 TIP3 H2   HT     0.417000        1.0079           0
    3271 WTU1 5647 TIP3 OH2  OT    -0.834000       15.9994           0
    3272 WTU1 5647 TIP3 H1   HT     0.417000        1.0079           0
    3273 WTU1 5647 TIP3 H2   HT     0.417000        1.0079           0
    3274 WTU1 5650 TIP3 OH2  OT    -0.834000       15.9994           0
    3275 WTU1 5650 TIP3 H1   HT     0.417000        1.0079           0
    3276 WTU1 5650 TIP3 H2   HT     0.417000        1.0079           0
    3277 WTU1 5651 TIP3 OH2  OT    -0.834000       15.9994           0
    3278 WTU1 5651 TIP3 H1   HT     0.417000        1.0079           0
    3279 WTU1 5651 TIP3 H2   HT     0.417000        1.0079           0
    3280 WTU1 5653 TIP3 OH2  OT    -0.834000       15.9994           0
    3281 WTU1 5653 TIP3 H1   HT     0.417000        1.0079           0
    3282 WTU1 5653 TIP3 H2   HT     0.417000        1.0079           0
    3283 WTU1 5654 TIP3 OH2  OT    -0.834000       15.9994           0
    3284 WTU1 5654 TIP3 H1   HT     0.417000        1.0079           0
    3285 WTU1 5654 TIP3 H2   HT     0.417000        1.0079           0
    3286 WTU1 5656 TIP3 OH2  OT    -0.834000       15.9994           0
    3287 WTU1 5656 TIP3 H1   HT     0.417000        1.0079           0
    3288 WTU1 5656 TIP3 H2   HT     0.417000        1.0079           0
    3289 WTU1 5669 TIP3 OH2  OT    -0.834000       15.9994           0
    3290 WTU1 5669 TIP3 H1   HT     0.417000        1.0079           0
    3291 WTU1 5669 TIP3 H2   HT     0.417000        1.0079           0
    3292 WTU1 5673 TIP3 OH2  OT    -0.834000       15.9994           0
    3293 WTU1 5673 TIP3 H1   HT     0.417000        1.0079           0
    3294 WTU1 5673 TIP3 H2   HT     0.417000        1.0079           0
    3295 WTU1 5674 TIP3 OH2  OT    -0.834000       15.9994           0
    3296 WTU1 5674 TIP3 H1   HT     0.417000        1.0079           0
    3297 WTU1 5674 TIP3 H2   HT     0.417000        1.0079           0
    3298 WTU1 5676 TIP3 OH2  OT    -0.834000       15.9994           0
    3299 WTU1 5676 TIP3 H1   HT     0.417000        1.0079           0
    3300 WTU1 5676 TIP3 H2   HT     0.417000        1.0079           0
    3301 WTU1 5687 TIP3 OH2  OT    -0.834000       15.9994           0
    3302 WTU1 5687 TIP3 H1   HT     0.417000        1.0079           0
    3303 WTU1 5687 TIP3 H2   HT     0.417000        1.0079           0
    3304 WTU1 5690 TIP3 OH2  OT    -0.834000       15.9994           0
    3305 WTU1 5690 TIP3 H1   HT     0.417000        1.0079           0
    3306 WTU1 5690 TIP3 H2   HT     0.417000        1.0079           0
    3307 WTU1 5692 TIP3 OH2  OT    -0.834000       15.9994           0
    3308 WTU1 5692 TIP3 H1   HT     0.417000        1.0079           0
    3309 WTU1 5692 TIP3 H2   HT     0.417000        1.0079           0
    3310 WTU1 5710 TIP3 OH2  OT    -0.834000       15.9994           0
    3311 WTU1 5710 TIP3 H1   HT     0.417000        1.0079           0
    3312 WTU1 5710 TIP3 H2   HT     0.417000        1.0079           0
    3313 WTU1 5711 TIP3 OH2  OT    -0.834000       15.9994           0
    3314 WTU1 5711 TIP3 H1   HT     0.417000        1.0079           0
    3315 WTU1 5711 TIP3 H2   HT     0.417000        1.0079           0
    3316 WTU1 5717 TIP3 OH2  OT    -0.834000       15.9994           0
    3317 WTU1 5717 TIP3 H1   HT     0.417000        1.0079           0
    3318 WTU1 5717 TIP3 H2   HT     0.417000        1.0079           0
    3319 WTU1 5730 TIP3 OH2  OT    -0.834000       15.9994           0
    3320 WTU1 5730 TIP3 H1   HT     0.417000        1.0079           0
    3321 WTU1 5730 TIP3 H2   HT     0.417000        1.0079           0
    3322 WTU1 5734 TIP3 OH2  OT    -0.834000       15.9994           0
    3323 WTU1 5734 TIP3 H1   HT     0.417000        1.0079           0
    3324 WTU1 5734 TIP3 H2   HT     0.417000        1.0079           0
    3325 WTU1 5735 TIP3 OH2  OT    -0.834000       15.9994           0
    3326 WTU1 5735 TIP3 H1   HT     0.417000        1.0079           0
    3327 WTU1 5735 TIP3 H2   HT     0.417000        1.0079           0
    3328 WTU1 5755 TIP3 OH2  OT    -0.834000       15.9994           0
    3329 WTU1 5755 TIP3 H1   HT     0.417000        1.0079           0
    3330 WTU1 5755 TIP3 H2   HT     0.417000        1.0079           0
    3331 WTU1 5756 TIP3 OH2  OT    -0.834000       15.9994           0
    3332 WTU1 5756 TIP3 H1   HT     0.417000        1.0079           0
    3333 WTU1 5756 TIP3 H2   HT     0.417000        1.0079           0
    3334 WTU1 5758 TIP3 OH2  OT    -0.834000       15.9994           0
    3335 WTU1 5758 TIP3 H1   HT     0.417000        1.0079           0
    3336 WTU1 5758 TIP3 H2   HT     0.417000        1.0079           0
    3337 WTU1 5759 TIP3 OH2  OT    -0.834000       15.9994           0
    3338 WTU1 5759 TIP3 H1   HT     0.417000        1.0079           0
    3339 WTU1 5759 TIP3 H2   HT     0.417000        1.0079           0
    3340 WTU1 5775 TIP3 OH2  OT    -0.834000       15.9994           0
    3341 WTU1 5775 TIP3 H1   HT     0.417000        1.0079           0
    3342 WTU1 5775 TIP3 H2   HT     0.417000        1.0079           0
    3343 WTU1 5777 TIP3 OH2  OT    -0.834000       15.9994           0
    3344 WTU1 5777 TIP3 H1   HT     0.417000        1.0079           0
    3345 WTU1 5777 TIP3 H2   HT     0.417000        1.0079           0
    3346 WTU1 5778 TIP3 OH2  OT    -0.834000       15.9994           0
    3347 WTU1 5778 TIP3 H1   HT     0.417000        1.0079           0
    3348 WTU1 5778 TIP3 H2   HT     0.417000        1.0079           0
    3349 WTU1 5779 TIP3 OH2  OT    -0.834000       15.9994           0
    3350 WTU1 5779 TIP3 H1   HT     0.417000        1.0079           0
    3351 WTU1 5779 TIP3 H2   HT     0.417000        1.0079           0
    3352 WTU1 5797 TIP3 OH2  OT    -0.834000       15.9994           0
    3353 WTU1 5797 TIP3 H1   HT     0.417000        1.0079           0
    3354 WTU1 5797 TIP3 H2   HT     0.417000        1.0079           0
    3355 WTU1 5798 TIP3 OH2  OT    -0.834000       15.9994           0
    3356 WTU1 5798 TIP3 H1   HT     0.417000        1.0079           0
    3357 WTU1 5798 TIP3 H2   HT     0.417000        1.0079           0
    3358 WTU1 5800 TIP3 OH2  OT    -0.834000       15.9994           0
    3359 WTU1 5800 TIP3 H1   HT     0.417000        1.0079           0
    3360 WTU1 5800 TIP3 H2   HT     0.417000        1.0079           0
    3361 WTU1 5801 TIP3 OH2  OT    -0.834000       15.9994           0
    3362 WTU1 5801 TIP3 H1   HT     0.417000        1.0079           0
    3363 WTU1 5801 TIP3 H2   HT     0.417000        1.0079           0
    3364 WTU1 5818 TIP3 OH2  OT    -0.834000       15.9994           0
    3365 WTU1 5818 TIP3 H1   HT     0.417000        1.0079           0
    3366 WTU1 5818 TIP3 H2   HT     0.417000        1.0079           0
    3367 WTU1 5819 TIP3 OH2  OT    -0.834000       15.9994           0
    3368 WTU1 5819 TIP3 H1   HT     0.417000        1.0079           0
    3369 WTU1 5819 TIP3 H2   HT     0.417000        1.0079           0
    3370 WTU1 5820 TIP3 OH2  OT    -0.834000       15.9994           0
    3371 WTU1 5820 TIP3 H1   HT     0.417000        1.0079           0
    3372 WTU1 5820 TIP3 H2   HT     0.417000        1.0079           0
    3373 WTU1 5822 TIP3 OH2  OT    -0.834000       15.9994           0
    3374 WTU1 5822 TIP3 H1   HT     0.417000        1.0079           0
    3375 WTU1 5822 TIP3 H2   HT     0.417000        1.0079           0
    3376 WTU1 5836 TIP3 OH2  OT    -0.834000       15.9994           0
    3377 WTU1 5836 TIP3 H1   HT     0.417000        1.0079           0
    3378 WTU1 5836 TIP3 H2   HT     0.417000        1.0079           0
    3379 WTU1 5837 TIP3 OH2  OT    -0.834000       15.9994           0
    3380 WTU1 5837 TIP3 H1   HT     0.417000        1.0079           0
    3381 WTU1 5837 TIP3 H2   HT     0.417000        1.0079           0
    3382 WTU1 5839 TIP3 OH2  OT    -0.834000       15.9994           0
    3383 WTU1 5839 TIP3 H1   HT     0.417000        1.0079           0
    3384 WTU1 5839 TIP3 H2   HT     0.417000        1.0079           0
    3385 WTU1 5840 TIP3 OH2  OT    -0.834000       15.9994           0
    3386 WTU1 5840 TIP3 H1   HT     0.417000        1.0079           0
    3387 WTU1 5840 TIP3 H2   HT     0.417000        1.0079           0
    3388 WTU1 5841 TIP3 OH2  OT    -0.834000       15.9994           0
    3389 WTU1 5841 TIP3 H1   HT     0.417000        1.0079           0
    3390 WTU1 5841 TIP3 H2   HT     0.417000        1.0079           0
    3391 WTU1 5843 TIP3 OH2  OT    -0.834000       15.9994           0
    3392 WTU1 5843 TIP3 H1   HT     0.417000        1.0079           0
    3393 WTU1 5843 TIP3 H2   HT     0.417000        1.0079           0
    3394 WTU1 5859 TIP3 OH2  OT    -0.834000       15.9994           0
    3395 WTU1 5859 TIP3 H1   HT     0.417000        1.0079           0
    3396 WTU1 5859 TIP3 H2   HT     0.417000        1.0079           0
    3397 WTU1 5860 TIP3 OH2  OT    -0.834000       15.9994           0
    3398 WTU1 5860 TIP3 H1   HT     0.417000        1.0079           0
    3399 WTU1 5860 TIP3 H2   HT     0.417000        1.0079           0
    3400 WTU1 5861 TIP3 OH2  OT    -0.834000       15.9994           0
    3401 WTU1 5861 TIP3 H1   HT     0.417000        1.0079           0
    3402 WTU1 5861 TIP3 H2   HT     0.417000        1.0079           0
    3403 WTU1 5862 TIP3 OH2  OT    -0.834000       15.9994           0
    3404 WTU1 5862 TIP3 H1   HT     0.417000        1.0079           0
    3405 WTU1 5862 TIP3 H2   HT     0.417000        1.0079           0
    3406 WTU1 5863 TIP3 OH2  OT    -0.834000       15.9994           0
    3407 WTU1 5863 TIP3 H1   HT     0.417000        1.0079           0
    3408 WTU1 5863 TIP3 H2   HT     0.417000        1.0079           0
    3409 WTU1 5881 TIP3 OH2  OT    -0.834000       15.9994           0
    3410 WTU1 5881 TIP3 H1   HT     0.417000        1.0079           0
    3411 WTU1 5881 TIP3 H2   HT     0.417000        1.0079           0
    3412 WTU1 5883 TIP3 OH2  OT    -0.834000       15.9994           0
    3413 WTU1 5883 TIP3 H1   HT     0.417000        1.0079           0
    3414 WTU1 5883 TIP3 H2   HT     0.417000        1.0079           0
    3415 WTU1 5884 TIP3 OH2  OT    -0.834000       15.9994           0
    3416 WTU1 5884 TIP3 H1   HT     0.417000        1.0079           0
    3417 WTU1 5884 TIP3 H2   HT     0.417000        1.0079           0
    3418 WTU1 5886 TIP3 OH2  OT    -0.834000       15.9994           0
    3419 WTU1 5886 TIP3 H1   HT     0.417000        1.0079           0
    3420 WTU1 5886 TIP3 H2   HT     0.417000        1.0079           0
    3421 WTU1 5887 TIP3 OH2  OT    -0.834000       15.9994           0
    3422 WTU1 5887 TIP3 H1   HT     0.417000        1.0079           0
    3423 WTU1 5887 TIP3 H2   HT     0.417000        1.0079           0
    3424 WTU1 5889 TIP3 OH2  OT    -0.834000       15.9994           0
    3425 WTU1 5889 TIP3 H1   HT     0.417000        1.0079           0
    3426 WTU1 5889 TIP3 H2   HT     0.417000        1.0079           0
    3427 WTU1 5899 TIP3 OH2  OT    -0.834000       15.9994           0
    3428 WTU1 5899 TIP3 H1   HT     0.417000        1.0079           0
    3429 WTU1 5899 TIP3 H2   HT     0.417000        1.0079           0
    3430 WTU1 5901 TIP3 OH2  OT    -0.834000       15.9994           0
    3431 WTU1 5901 TIP3 H1   HT     0.417000        1.0079           0
    3432 WTU1 5901 TIP3 H2   HT     0.417000        1.0079           0
    3433 WTU1 5903 TIP3 OH2  OT    -0.834000       15.9994           0
    3434 WTU1 5903 TIP3 H1   HT     0.417000        1.0079           0
    3435 WTU1 5903 TIP3 H2   HT     0.417000        1.0079           0
    3436 WTU1 5904 TIP3 OH2  OT    -0.834000       15.9994           0
    3437 WTU1 5904 TIP3 H1   HT     0.417000        1.0079           0
    3438 WTU1 5904 TIP3 H2   HT     0.417000        1.0079           0
    3439 WTU1 5909 TIP3 OH2  OT    -0.834000       15.9994           0
    3440 WTU1 5909 TIP3 H1   HT     0.417000        1.0079           0
    3441 WTU1 5909 TIP3 H2   HT     0.417000        1.0079           0
    3442 WTU1 5920 TIP3 OH2  OT    -0.834000       15.9994           0
    3443 WTU1 5920 TIP3 H1   HT     0.417000        1.0079           0
    3444 WTU1 5920 TIP3 H2   HT     0.417000        1.0079           0
    3445 WTU1 5925 TIP3 OH2  OT    -0.834000       15.9994           0
    3446 WTU1 5925 TIP3 H1   HT     0.417000        1.0079           0
    3447 WTU1 5925 TIP3 H2   HT     0.417000        1.0079           0
    3448 WTU1 5926 TIP3 OH2  OT    -0.834000       15.9994           0
    3449 WTU1 5926 TIP3 H1   HT     0.417000        1.0079           0
    3450 WTU1 5926 TIP3 H2   HT     0.417000        1.0079           0
    3451 WTU1 5927 TIP3 OH2  OT    -0.834000       15.9994           0
    3452 WTU1 5927 TIP3 H1   HT     0.417000        1.0079           0
    3453 WTU1 5927 TIP3 H2   HT     0.417000        1.0079           0
    3454 WTU1 5946 TIP3 OH2  OT    -0.834000       15.9994           0
    3455 WTU1 5946 TIP3 H1   HT     0.417000        1.0079           0
    3456 WTU1 5946 TIP3 H2   HT     0.417000        1.0079           0
    3457 WTU1 5950 TIP3 OH2  OT    -0.834000       15.9994           0
    3458 WTU1 5950 TIP3 H1   HT     0.417000        1.0079           0
    3459 WTU1 5950 TIP3 H2   HT     0.417000        1.0079           0
    3460 WTU1 5965 TIP3 OH2  OT    -0.834000       15.9994           0
    3461 WTU1 5965 TIP3 H1   HT     0.417000        1.0079           0
    3462 WTU1 5965 TIP3 H2   HT     0.417000        1.0079           0
    3463 WTU1 5966 TIP3 OH2  OT    -0.834000       15.9994           0
    3464 WTU1 5966 TIP3 H1   HT     0.417000        1.0079           0
    3465 WTU1 5966 TIP3 H2   HT     0.417000        1.0079           0
    3466 WTU1 5969 TIP3 OH2  OT    -0.834000       15.9994           0
    3467 WTU1 5969 TIP3 H1   HT     0.417000        1.0079           0
    3468 WTU1 5969 TIP3 H2   HT     0.417000        1.0079           0
    3469 WTU1 5986 TIP3 OH2  OT    -0.834000       15.9994           0
    3470 WTU1 5986 TIP3 H1   HT     0.417000        1.0079           0
    3471 WTU1 5986 TIP3 H2   HT     0.417000        1.0079           0
    3472 WTU1 5987 TIP3 OH2  OT    -0.834000       15.9994           0
    3473 WTU1 5987 TIP3 H1   HT     0.417000        1.0079           0
    3474 WTU1 5987 TIP3 H2   HT     0.417000        1.0079           0
    3475 WTU1 5988 TIP3 OH2  OT    -0.834000       15.9994           0
    3476 WTU1 5988 TIP3 H1   HT     0.417000        1.0079           0
    3477 WTU1 5988 TIP3 H2   HT     0.417000        1.0079           0
    3478 WTU1 5989 TIP3 OH2  OT    -0.834000       15.9994           0
    3479 WTU1 5989 TIP3 H1   HT     0.417000        1.0079           0
    3480 WTU1 5989 TIP3 H2   HT     0.417000        1.0079           0
    3481 WTU1 5990 TIP3 OH2  OT    -0.834000       15.9994           0
    3482 WTU1 5990 TIP3 H1   HT     0.417000        1.0079           0
    3483 WTU1 5990 TIP3 H2   HT     0.417000        1.0079           0
    3484 WTU1 6006 TIP3 OH2  OT    -0.834000       15.9994           0
    3485 WTU1 6006 TIP3 H1   HT     0.417000        1.0079           0
    3486 WTU1 6006 TIP3 H2   HT     0.417000        1.0079           0
    3487 WTU1 6026 TIP3 OH2  OT    -0.834000       15.9994           0
    3488 WTU1 6026 TIP3 H1   HT     0.417000        1.0079           0
    3489 WTU1 6026 TIP3 H2   HT     0.417000        1.0079           0
    3490 WTU1 6027 TIP3 OH2  OT    -0.834000       15.9994           0
    3491 WTU1 6027 TIP3 H1   HT     0.417000        1.0079           0
    3492 WTU1 6027 TIP3 H2   HT     0.417000        1.0079           0
    3493 WTU1 6030 TIP3 OH2  OT    -0.834000       15.9994           0
    3494 WTU1 6030 TIP3 H1   HT     0.417000        1.0079           0
    3495 WTU1 6030 TIP3 H2   HT     0.417000        1.0079           0
    3496 WTU1 6031 TIP3 OH2  OT    -0.834000       15.9994           0
    3497 WTU1 6031 TIP3 H1   HT     0.417000        1.0079           0
    3498 WTU1 6031 TIP3 H2   HT     0.417000        1.0079           0
    3499 WTU1 6046 TIP3 OH2  OT    -0.834000       15.9994           0
    3500 WTU1 6046 TIP3 H1   HT     0.417000        1.0079           0
    3501 WTU1 6046 TIP3 H2   HT     0.417000        1.0079           0
    3502 WTU1 6048 TIP3 OH2  OT    -0.834000       15.9994           0
    3503 WTU1 6048 TIP3 H1   HT     0.417000        1.0079           0
    3504 WTU1 6048 TIP3 H2   HT     0.417000        1.0079           0
    3505 WTU1 6049 TIP3 OH2  OT    -0.834000       15.9994           0
    3506 WTU1 6049 TIP3 H1   HT     0.417000        1.0079           0
    3507 WTU1 6049 TIP3 H2   HT     0.417000        1.0079           0
    3508 WTU1 6050 TIP3 OH2  OT    -0.834000       15.9994           0
    3509 WTU1 6050 TIP3 H1   HT     0.417000        1.0079           0
    3510 WTU1 6050 TIP3 H2   HT     0.417000        1.0079           0
    3511 WTU1 6051 TIP3 OH2  OT    -0.834000       15.9994           0
    3512 WTU1 6051 TIP3 H1   HT     0.417000        1.0079           0
    3513 WTU1 6051 TIP3 H2   HT     0.417000        1.0079           0
    3514 WTU1 6054 TIP3 OH2  OT    -0.834000       15.9994           0
    3515 WTU1 6054 TIP3 H1   HT     0.417000        1.0079           0
    3516 WTU1 6054 TIP3 H2   HT     0.417000        1.0079           0
    3517 WTU1 6068 TIP3 OH2  OT    -0.834000       15.9994           0
    3518 WTU1 6068 TIP3 H1   HT     0.417000        1.0079           0
    3519 WTU1 6068 TIP3 H2   HT     0.417000        1.0079           0
    3520 WTU1 6071 TIP3 OH2  OT    -0.834000       15.9994           0
    3521 WTU1 6071 TIP3 H1   HT     0.417000        1.0079           0
    3522 WTU1 6071 TIP3 H2   HT     0.417000        1.0079           0
    3523 WTU1 6072 TIP3 OH2  OT    -0.834000       15.9994           0
    3524 WTU1 6072 TIP3 H1   HT     0.417000        1.0079           0
    3525 WTU1 6072 TIP3 H2   HT     0.417000        1.0079           0
    3526 WTU1 6073 TIP3 OH2  OT    -0.834000       15.9994           0
    3527 WTU1 6073 TIP3 H1   HT     0.417000        1.0079           0
    3528 WTU1 6073 TIP3 H2   HT     0.417000        1.0079           0
    3529 WTU1 6074 TIP3 OH2  OT    -0.834000       15.9994           0
    3530 WTU1 6074 TIP3 H1   HT     0.417000        1.0079           0
    3531 WTU1 6074 TIP3 H2   HT     0.417000        1.0079           0
    3532 WTU1 6075 TIP3 OH2  OT    -0.834000       15.9994           0
    3533 WTU1 6075 TIP3 H1   HT     0.417000        1.0079           0
    3534 WTU1 6075 TIP3 H2   HT     0.417000        1.0079           0
    3535 WTU1 6089 TIP3 OH2  OT    -0.834000       15.9994           0
    3536 WTU1 6089 TIP3 H1   HT     0.417000        1.0079           0
    3537 WTU1 6089 TIP3 H2   HT     0.417000        1.0079           0
    3538 WTU1 6090 TIP3 OH2  OT    -0.834000       15.9994           0
    3539 WTU1 6090 TIP3 H1   HT     0.417000        1.0079           0
    3540 WTU1 6090 TIP3 H2   HT     0.417000        1.0079           0
    3541 WTU1 6091 TIP3 OH2  OT    -0.834000       15.9994           0
    3542 WTU1 6091 TIP3 H1   HT     0.417000        1.0079           0
    3543 WTU1 6091 TIP3 H2   HT     0.417000        1.0079           0
    3544 WTU1 6092 TIP3 OH2  OT    -0.834000       15.9994           0
    3545 WTU1 6092 TIP3 H1   HT     0.417000        1.0079           0
    3546 WTU1 6092 TIP3 H2   HT     0.417000        1.0079           0
    3547 WTU1 6095 TIP3 OH2  OT    -0.834000       15.9994           0
    3548 WTU1 6095 TIP3 H1   HT     0.417000        1.0079           0
    3549 WTU1 6095 TIP3 H2   HT     0.417000        1.0079           0
    3550 WTU1 6096 TIP3 OH2  OT    -0.834000       15.9994           0
    3551 WTU1 6096 TIP3 H1   HT     0.417000        1.0079           0
    3552 WTU1 6096 TIP3 H2   HT     0.417000        1.0079           0
    3553 WTU1 6110 TIP3 OH2  OT    -0.834000       15.9994           0
    3554 WTU1 6110 TIP3 H1   HT     0.417000        1.0079           0
    3555 WTU1 6110 TIP3 H2   HT     0.417000        1.0079           0
    3556 WTU1 6112 TIP3 OH2  OT    -0.834000       15.9994           0
    3557 WTU1 6112 TIP3 H1   HT     0.417000        1.0079           0
    3558 WTU1 6112 TIP3 H2   HT     0.417000        1.0079           0
    3559 WTU1 6113 TIP3 OH2  OT    -0.834000       15.9994           0
    3560 WTU1 6113 TIP3 H1   HT     0.417000        1.0079           0
    3561 WTU1 6113 TIP3 H2   HT     0.417000        1.0079           0
    3562 WTU1 6116 TIP3 OH2  OT    -0.834000       15.9994           0
    3563 WTU1 6116 TIP3 H1   HT     0.417000        1.0079           0
    3564 WTU1 6116 TIP3 H2   HT     0.417000        1.0079           0
    3565 WTU1 6117 TIP3 OH2  OT    -0.834000       15.9994           0
    3566 WTU1 6117 TIP3 H1   HT     0.417000        1.0079           0
    3567 WTU1 6117 TIP3 H2   HT     0.417000        1.0079           0
    3568 WTU1 6132 TIP3 OH2  OT    -0.834000       15.9994           0
    3569 WTU1 6132 TIP3 H1   HT     0.417000        1.0079           0
    3570 WTU1 6132 TIP3 H2   HT     0.417000        1.0079           0
    3571 WTU1 6133 TIP3 OH2  OT    -0.834000       15.9994           0
    3572 WTU1 6133 TIP3 H1   HT     0.417000        1.0079           0
    3573 WTU1 6133 TIP3 H2   HT     0.417000        1.0079           0
    3574 WTU1 6134 TIP3 OH2  OT    -0.834000       15.9994           0
    3575 WTU1 6134 TIP3 H1   HT     0.417000        1.0079           0
    3576 WTU1 6134 TIP3 H2   HT     0.417000        1.0079           0
    3577 WTU1 6135 TIP3 OH2  OT    -0.834000       15.9994           0
    3578 WTU1 6135 TIP3 H1   HT     0.417000        1.0079           0
    3579 WTU1 6135 TIP3 H2   HT     0.417000        1.0079           0
    3580 WTU1 6136 TIP3 OH2  OT    -0.834000       15.9994           0
    3581 WTU1 6136 TIP3 H1   HT     0.417000        1.0079           0
    3582 WTU1 6136 TIP3 H2   HT     0.417000        1.0079           0
    3583 WTU1 6137 TIP3 OH2  OT    -0.834000       15.9994           0
    3584 WTU1 6137 TIP3 H1   HT     0.417000        1.0079           0
    3585 WTU1 6137 TIP3 H2   HT     0.417000        1.0079           0
    3586 WTU1 6138 TIP3 OH2  OT    -0.834000       15.9994           0
    3587 WTU1 6138 TIP3 H1   HT     0.417000        1.0079           0
    3588 WTU1 6138 TIP3 H2   HT     0.417000        1.0079           0
    3589 WTU1 6158 TIP3 OH2  OT    -0.834000       15.9994           0
    3590 WTU1 6158 TIP3 H1   HT     0.417000        1.0079           0
    3591 WTU1 6158 TIP3 H2   HT     0.417000        1.0079           0
    3592 WTU1 6160 TIP3 OH2  OT    -0.834000       15.9994           0
    3593 WTU1 6160 TIP3 H1   HT     0.417000        1.0079           0
    3594 WTU1 6160 TIP3 H2   HT     0.417000        1.0079           0
    3595 WTU1 6176 TIP3 OH2  OT    -0.834000       15.9994           0
    3596 WTU1 6176 TIP3 H1   HT     0.417000        1.0079           0
    3597 WTU1 6176 TIP3 H2   HT     0.417000        1.0079           0
    3598 WTU1 6177 TIP3 OH2  OT    -0.834000       15.9994           0
    3599 WTU1 6177 TIP3 H1   HT     0.417000        1.0079           0
    3600 WTU1 6177 TIP3 H2   HT     0.417000        1.0079           0
    3601 WTU1 6181 TIP3 OH2  OT    -0.834000       15.9994           0
    3602 WTU1 6181 TIP3 H1   HT     0.417000        1.0079           0
    3603 WTU1 6181 TIP3 H2   HT     0.417000        1.0079           0
    3604 WTU1 6182 TIP3 OH2  OT    -0.834000       15.9994           0
    3605 WTU1 6182 TIP3 H1   HT     0.417000        1.0079           0
    3606 WTU1 6182 TIP3 H2   HT     0.417000        1.0079           0
    3607 WTU1 6183 TIP3 OH2  OT    -0.834000       15.9994           0
    3608 WTU1 6183 TIP3 H1   HT     0.417000        1.0079           0
    3609 WTU1 6183 TIP3 H2   HT     0.417000        1.0079           0
    3610 WTU1 6195 TIP3 OH2  OT    -0.834000       15.9994           0
    3611 WTU1 6195 TIP3 H1   HT     0.417000        1.0079           0
    3612 WTU1 6195 TIP3 H2   HT     0.417000        1.0079           0
    3613 WTU1 6197 TIP3 OH2  OT    -0.834000       15.9994           0
    3614 WTU1 6197 TIP3 H1   HT     0.417000        1.0079           0
    3615 WTU1 6197 TIP3 H2   HT     0.417000        1.0079           0
    3616 WTU1 6198 TIP3 OH2  OT    -0.834000       15.9994           0
    3617 WTU1 6198 TIP3 H1   HT     0.417000        1.0079           0
    3618 WTU1 6198 TIP3 H2   HT     0.417000        1.0079           0
    3619 WTU1 6200 TIP3 OH2  OT    -0.834000       15.9994           0
    3620 WTU1 6200 TIP3 H1   HT     0.417000        1.0079           0
    3621 WTU1 6200 TIP3 H2   HT     0.417000        1.0079           0
    3622 WTU1 6215 TIP3 OH2  OT    -0.834000       15.9994           0
    3623 WTU1 6215 TIP3 H1   HT     0.417000        1.0079           0
    3624 WTU1 6215 TIP3 H2   HT     0.417000        1.0079           0
    3625 WTU1 6216 TIP3 OH2  OT    -0.834000       15.9994           0
    3626 WTU1 6216 TIP3 H1   HT     0.417000        1.0079           0
    3627 WTU1 6216 TIP3 H2   HT     0.417000        1.0079           0
    3628 WTU1 6218 TIP3 OH2  OT    -0.834000       15.9994           0
    3629 WTU1 6218 TIP3 H1   HT     0.417000        1.0079           0
    3630 WTU1 6218 TIP3 H2   HT     0.417000        1.0079           0
    3631 WTU1 6219 TIP3 OH2  OT    -0.834000       15.9994           0
    3632 WTU1 6219 TIP3 H1   HT     0.417000        1.0079           0
    3633 WTU1 6219 TIP3 H2   HT     0.417000        1.0079           0
    3634 WTU1 6220 TIP3 OH2  OT    -0.834000       15.9994           0
    3635 WTU1 6220 TIP3 H1   HT     0.417000        1.0079           0
    3636 WTU1 6220 TIP3 H2   HT     0.417000        1.0079           0
    3637 WTU1 6238 TIP3 OH2  OT    -0.834000       15.9994           0
    3638 WTU1 6238 TIP3 H1   HT     0.417000        1.0079           0
    3639 WTU1 6238 TIP3 H2   HT     0.417000        1.0079           0
    3640 WTU1 6239 TIP3 OH2  OT    -0.834000       15.9994           0
    3641 WTU1 6239 TIP3 H1   HT     0.417000        1.0079           0
    3642 WTU1 6239 TIP3 H2   HT     0.417000        1.0079           0
    3643 WTU1 6240 TIP3 OH2  OT    -0.834000       15.9994           0
    3644 WTU1 6240 TIP3 H1   HT     0.417000        1.0079           0
    3645 WTU1 6240 TIP3 H2   HT     0.417000        1.0079           0
    3646 WTU1 6241 TIP3 OH2  OT    -0.834000       15.9994           0
    3647 WTU1 6241 TIP3 H1   HT     0.417000        1.0079           0
    3648 WTU1 6241 TIP3 H2   HT     0.417000        1.0079           0
    3649 WTU1 6245 TIP3 OH2  OT    -0.834000       15.9994           0
    3650 WTU1 6245 TIP3 H1   HT     0.417000        1.0079           0
    3651 WTU1 6245 TIP3 H2   HT     0.417000        1.0079           0
    3652 WTU1 6246 TIP3 OH2  OT    -0.834000       15.9994           0
    3653 WTU1 6246 TIP3 H1   HT     0.417000        1.0079           0
    3654 WTU1 6246 TIP3 H2   HT     0.417000        1.0079           0
    3655 WTU1 6256 TIP3 OH2  OT    -0.834000       15.9994           0
    3656 WTU1 6256 TIP3 H1   HT     0.417000        1.0079           0
    3657 WTU1 6256 TIP3 H2   HT     0.417000        1.0079           0
    3658 WTU1 6258 TIP3 OH2  OT    -0.834000       15.9994           0
    3659 WTU1 6258 TIP3 H1   HT     0.417000        1.0079           0
    3660 WTU1 6258 TIP3 H2   HT     0.417000        1.0079           0
    3661 WTU1 6263 TIP3 OH2  OT    -0.834000       15.9994           0
    3662 WTU1 6263 TIP3 H1   HT     0.417000        1.0079           0
    3663 WTU1 6263 TIP3 H2   HT     0.417000        1.0079           0
    3664 WTU1 6281 TIP3 OH2  OT    -0.834000       15.9994           0
    3665 WTU1 6281 TIP3 H1   HT     0.417000        1.0079           0
    3666 WTU1 6281 TIP3 H2   HT     0.417000        1.0079           0
    3667 WTU1 6283 TIP3 OH2  OT    -0.834000       15.9994           0
    3668 WTU1 6283 TIP3 H1   HT     0.417000        1.0079           0
    3669 WTU1 6283 TIP3 H2   HT     0.417000        1.0079           0
    3670 WTU1 6284 TIP3 OH2  OT    -0.834000       15.9994           0
    3671 WTU1 6284 TIP3 H1   HT     0.417000        1.0079           0
    3672 WTU1 6284 TIP3 H2   HT     0.417000        1.0079           0
    3673 WTU1 6285 TIP3 OH2  OT    -0.834000       15.9994           0
    3674 WTU1 6285 TIP3 H1   HT     0.417000        1.0079           0
    3675 WTU1 6285 TIP3 H2   HT     0.417000        1.0079           0
    3676 WTU1 6297 TIP3 OH2  OT    -0.834000       15.9994           0
    3677 WTU1 6297 TIP3 H1   HT     0.417000        1.0079           0
    3678 WTU1 6297 TIP3 H2   HT     0.417000        1.0079           0
    3679 WTU1 6300 TIP3 OH2  OT    -0.834000       15.9994           0
    3680 WTU1 6300 TIP3 H1   HT     0.417000        1.0079           0
    3681 WTU1 6300 TIP3 H2   HT     0.417000        1.0079           0
    3682 WTU1 6303 TIP3 OH2  OT    -0.834000       15.9994           0
    3683 WTU1 6303 TIP3 H1   HT     0.417000        1.0079           0
    3684 WTU1 6303 TIP3 H2   HT     0.417000        1.0079           0
    3685 WTU1 6305 TIP3 OH2  OT    -0.834000       15.9994           0
    3686 WTU1 6305 TIP3 H1   HT     0.417000        1.0079           0
    3687 WTU1 6305 TIP3 H2   HT     0.417000        1.0079           0
    3688 WTU1 6311 TIP3 OH2  OT    -0.834000       15.9994           0
    3689 WTU1 6311 TIP3 H1   HT     0.417000        1.0079           0
    3690 WTU1 6311 TIP3 H2   HT     0.417000        1.0079           0
    3691 WTU1 6319 TIP3 OH2  OT    -0.834000       15.9994           0
    3692 WTU1 6319 TIP3 H1   HT     0.417000        1.0079           0
    3693 WTU1 6319 TIP3 H2   HT     0.417000        1.0079           0
    3694 WTU1 6323 TIP3 OH2  OT    -0.834000       15.9994           0
    3695 WTU1 6323 TIP3 H1   HT     0.417000        1.0079           0
    3696 WTU1 6323 TIP3 H2   HT     0.417000        1.0079           0
    3697 WTU1 6324 TIP3 OH2  OT    -0.834000       15.9994           0
    3698 WTU1 6324 TIP3 H1   HT     0.417000        1.0079           0
    3699 WTU1 6324 TIP3 H2   HT     0.417000        1.0079           0
    3700 WTU1 6326 TIP3 OH2  OT    -0.834000       15.9994           0
    3701 WTU1 6326 TIP3 H1   HT     0.417000        1.0079           0
    3702 WTU1 6326 TIP3 H2   HT     0.417000        1.0079           0
    3703 WTU1 6328 TIP3 OH2  OT    -0.834000       15.9994           0
    3704 WTU1 6328 TIP3 H1   HT     0.417000        1.0079           0
    3705 WTU1 6328 TIP3 H2   HT     0.417000        1.0079           0
    3706 WTU1 6341 TIP3 OH2  OT    -0.834000       15.9994           0
    3707 WTU1 6341 TIP3 H1   HT     0.417000        1.0079           0
    3708 WTU1 6341 TIP3 H2   HT     0.417000        1.0079           0
    3709 WTU1 6345 TIP3 OH2  OT    -0.834000       15.9994           0
    3710 WTU1 6345 TIP3 H1   HT     0.417000        1.0079           0
    3711 WTU1 6345 TIP3 H2   HT     0.417000        1.0079           0
    3712 WTU1 6348 TIP3 OH2  OT    -0.834000       15.9994           0
    3713 WTU1 6348 TIP3 H1   HT     0.417000        1.0079           0
    3714 WTU1 6348 TIP3 H2   HT     0.417000        1.0079           0
    3715 WTU1 6357 TIP3 OH2  OT    -0.834000       15.9994           0
    3716 WTU1 6357 TIP3 H1   HT     0.417000        1.0079           0
    3717 WTU1 6357 TIP3 H2   HT     0.417000        1.0079           0
    3718 WTU1 6369 TIP3 OH2  OT    -0.834000       15.9994           0
    3719 WTU1 6369 TIP3 H1   HT     0.417000        1.0079           0
    3720 WTU1 6369 TIP3 H2   HT     0.417000        1.0079           0
    3721 WTU1 6381 TIP3 OH2  OT    -0.834000       15.9994           0
    3722 WTU1 6381 TIP3 H1   HT     0.417000        1.0079           0
    3723 WTU1 6381 TIP3 H2   HT     0.417000        1.0079           0
    3724 WTU1 6388 TIP3 OH2  OT    -0.834000       15.9994           0
    3725 WTU1 6388 TIP3 H1   HT     0.417000        1.0079           0
    3726 WTU1 6388 TIP3 H2   HT     0.417000        1.0079           0
    3727 WTU1 6389 TIP3 OH2  OT    -0.834000       15.9994           0
    3728 WTU1 6389 TIP3 H1   HT     0.417000        1.0079           0
    3729 WTU1 6389 TIP3 H2   HT     0.417000        1.0079           0
    3730 WTU1 6390 TIP3 OH2  OT    -0.834000       15.9994           0
    3731 WTU1 6390 TIP3 H1   HT     0.417000        1.0079           0
    3732 WTU1 6390 TIP3 H2   HT     0.417000        1.0079           0
    3733 WTU1 6403 TIP3 OH2  OT    -0.834000       15.9994           0
    3734 WTU1 6403 TIP3 H1   HT     0.417000        1.0079           0
    3735 WTU1 6403 TIP3 H2   HT     0.417000        1.0079           0
    3736 WTU1 6404 TIP3 OH2  OT    -0.834000       15.9994           0
    3737 WTU1 6404 TIP3 H1   HT     0.417000        1.0079           0
    3738 WTU1 6404 TIP3 H2   HT     0.417000        1.0079           0
    3739 WTU1 6407 TIP3 OH2  OT    -0.834000       15.9994           0
    3740 WTU1 6407 TIP3 H1   HT     0.417000        1.0079           0
    3741 WTU1 6407 TIP3 H2   HT     0.417000        1.0079           0
    3742 WTU1 6408 TIP3 OH2  OT    -0.834000       15.9994           0
    3743 WTU1 6408 TIP3 H1   HT     0.417000        1.0079           0
    3744 WTU1 6408 TIP3 H2   HT     0.417000        1.0079           0
    3745 WTU1 6409 TIP3 OH2  OT    -0.834000       15.9994           0
    3746 WTU1 6409 TIP3 H1   HT     0.417000        1.0079           0
    3747 WTU1 6409 TIP3 H2   HT     0.417000        1.0079           0
    3748 WTU1 6410 TIP3 OH2  OT    -0.834000       15.9994           0
    3749 WTU1 6410 TIP3 H1   HT     0.417000        1.0079           0
    3750 WTU1 6410 TIP3 H2   HT     0.417000        1.0079           0
    3751 WTU1 6425 TIP3 OH2  OT    -0.834000       15.9994           0
    3752 WTU1 6425 TIP3 H1   HT     0.417000        1.0079           0
    3753 WTU1 6425 TIP3 H2   HT     0.417000        1.0079           0
    3754 WTU1 6428 TIP3 OH2  OT    -0.834000       15.9994           0
    3755 WTU1 6428 TIP3 H1   HT     0.417000        1.0079           0
    3756 WTU1 6428 TIP3 H2   HT     0.417000        1.0079           0
    3757 WTU1 6429 TIP3 OH2  OT    -0.834000       15.9994           0
    3758 WTU1 6429 TIP3 H1   HT     0.417000        1.0079           0
    3759 WTU1 6429 TIP3 H2   HT     0.417000        1.0079           0
    3760 WTU1 6433 TIP3 OH2  OT    -0.834000       15.9994           0
    3761 WTU1 6433 TIP3 H1   HT     0.417000        1.0079           0
    3762 WTU1 6433 TIP3 H2   HT     0.417000        1.0079           0
    3763 WTU1 6444 TIP3 OH2  OT    -0.834000       15.9994           0
    3764 WTU1 6444 TIP3 H1   HT     0.417000        1.0079           0
    3765 WTU1 6444 TIP3 H2   HT     0.417000        1.0079           0
    3766 WTU1 6446 TIP3 OH2  OT    -0.834000       15.9994           0
    3767 WTU1 6446 TIP3 H1   HT     0.417000        1.0079           0
    3768 WTU1 6446 TIP3 H2   HT     0.417000        1.0079           0
    3769 WTU1 6448 TIP3 OH2  OT    -0.834000       15.9994           0
    3770 WTU1 6448 TIP3 H1   HT     0.417000        1.0079           0
    3771 WTU1 6448 TIP3 H2   HT     0.417000        1.0079           0
    3772 WTU1 6451 TIP3 OH2  OT    -0.834000       15.9994           0
    3773 WTU1 6451 TIP3 H1   HT     0.417000        1.0079           0
    3774 WTU1 6451 TIP3 H2   HT     0.417000        1.0079           0
    3775 WTU1 6452 TIP3 OH2  OT    -0.834000       15.9994           0
    3776 WTU1 6452 TIP3 H1   HT     0.417000        1.0079           0
    3777 WTU1 6452 TIP3 H2   HT     0.417000        1.0079           0
    3778 WTU1 6454 TIP3 OH2  OT    -0.834000       15.9994           0
    3779 WTU1 6454 TIP3 H1   HT     0.417000        1.0079           0
    3780 WTU1 6454 TIP3 H2   HT     0.417000        1.0079           0
    3781 WTU1 6469 TIP3 OH2  OT    -0.834000       15.9994           0
    3782 WTU1 6469 TIP3 H1   HT     0.417000        1.0079           0
    3783 WTU1 6469 TIP3 H2   HT     0.417000        1.0079           0
    3784 WTU1 6470 TIP3 OH2  OT    -0.834000       15.9994           0
    3785 WTU1 6470 TIP3 H1   HT     0.417000        1.0079           0
    3786 WTU1 6470 TIP3 H2   HT     0.417000        1.0079           0
    3787 WTU1 6471 TIP3 OH2  OT    -0.834000       15.9994           0
    3788 WTU1 6471 TIP3 H1   HT     0.417000        1.0079           0
    3789 WTU1 6471 TIP3 H2   HT     0.417000        1.0079           0
    3790 WTU1 6472 TIP3 OH2  OT    -0.834000       15.9994           0
    3791 WTU1 6472 TIP3 H1   HT     0.417000        1.0079           0
    3792 WTU1 6472 TIP3 H2   HT     0.417000        1.0079           0
    3793 WTU1 6474 TIP3 OH2  OT    -0.834000       15.9994           0
    3794 WTU1 6474 TIP3 H1   HT     0.417000        1.0079           0
    3795 WTU1 6474 TIP3 H2   HT     0.417000        1.0079           0
    3796 WTU1 6490 TIP3 OH2  OT    -0.834000       15.9994           0
    3797 WTU1 6490 TIP3 H1   HT     0.417000        1.0079           0
    3798 WTU1 6490 TIP3 H2   HT     0.417000        1.0079           0
    3799 WTU1 6493 TIP3 OH2  OT    -0.834000       15.9994           0
    3800 WTU1 6493 TIP3 H1   HT     0.417000        1.0079           0
    3801 WTU1 6493 TIP3 H2   HT     0.417000        1.0079           0
    3802 WTU1 6495 TIP3 OH2  OT    -0.834000       15.9994           0
    3803 WTU1 6495 TIP3 H1   HT     0.417000        1.0079           0
    3804 WTU1 6495 TIP3 H2   HT     0.417000        1.0079           0
    3805 WTU1 6509 TIP3 OH2  OT    -0.834000       15.9994           0
    3806 WTU1 6509 TIP3 H1   HT     0.417000        1.0079           0
    3807 WTU1 6509 TIP3 H2   HT     0.417000        1.0079           0
    3808 WTU1 6511 TIP3 OH2  OT    -0.834000       15.9994           0
    3809 WTU1 6511 TIP3 H1   HT     0.417000        1.0079           0
    3810 WTU1 6511 TIP3 H2   HT     0.417000        1.0079           0
    3811 WTU1 6512 TIP3 OH2  OT    -0.834000       15.9994           0
    3812 WTU1 6512 TIP3 H1   HT     0.417000        1.0079           0
    3813 WTU1 6512 TIP3 H2   HT     0.417000        1.0079           0
    3814 WTU1 6513 TIP3 OH2  OT    -0.834000       15.9994           0
    3815 WTU1 6513 TIP3 H1   HT     0.417000        1.0079           0
    3816 WTU1 6513 TIP3 H2   HT     0.417000        1.0079           0
    3817 WTU1 6514 TIP3 OH2  OT    -0.834000       15.9994           0
    3818 WTU1 6514 TIP3 H1   HT     0.417000        1.0079           0
    3819 WTU1 6514 TIP3 H2   HT     0.417000        1.0079           0
    3820 WTU1 6515 TIP3 OH2  OT    -0.834000       15.9994           0
    3821 WTU1 6515 TIP3 H1   HT     0.417000        1.0079           0
    3822 WTU1 6515 TIP3 H2   HT     0.417000        1.0079           0
    3823 WTU1 6519 TIP3 OH2  OT    -0.834000       15.9994           0
    3824 WTU1 6519 TIP3 H1   HT     0.417000        1.0079           0
    3825 WTU1 6519 TIP3 H2   HT     0.417000        1.0079           0
    3826 WTU1 6532 TIP3 OH2  OT    -0.834000       15.9994           0
    3827 WTU1 6532 TIP3 H1   HT     0.417000        1.0079           0
    3828 WTU1 6532 TIP3 H2   HT     0.417000        1.0079           0
    3829 WTU1 6533 TIP3 OH2  OT    -0.834000       15.9994           0
    3830 WTU1 6533 TIP3 H1   HT     0.417000        1.0079           0
    3831 WTU1 6533 TIP3 H2   HT     0.417000        1.0079           0
    3832 WTU1 6535 TIP3 OH2  OT    -0.834000       15.9994           0
    3833 WTU1 6535 TIP3 H1   HT     0.417000        1.0079           0
    3834 WTU1 6535 TIP3 H2   HT     0.417000        1.0079           0
    3835 WTU1 6537 TIP3 OH2  OT    -0.834000       15.9994           0
    3836 WTU1 6537 TIP3 H1   HT     0.417000        1.0079           0
    3837 WTU1 6537 TIP3 H2   HT     0.417000        1.0079           0
    3838 WTU1 6549 TIP3 OH2  OT    -0.834000       15.9994           0
    3839 WTU1 6549 TIP3 H1   HT     0.417000        1.0079           0
    3840 WTU1 6549 TIP3 H2   HT     0.417000        1.0079           0
    3841 WTU1 6551 TIP3 OH2  OT    -0.834000       15.9994           0
    3842 WTU1 6551 TIP3 H1   HT     0.417000        1.0079           0
    3843 WTU1 6551 TIP3 H2   HT     0.417000        1.0079           0
    3844 WTU1 6552 TIP3 OH2  OT    -0.834000       15.9994           0
    3845 WTU1 6552 TIP3 H1   HT     0.417000        1.0079           0
    3846 WTU1 6552 TIP3 H2   HT     0.417000        1.0079           0
    3847 WTU1 6553 TIP3 OH2  OT    -0.834000       15.9994           0
    3848 WTU1 6553 TIP3 H1   HT     0.417000        1.0079           0
    3849 WTU1 6553 TIP3 H2   HT     0.417000        1.0079           0
    3850 WTU1 6555 TIP3 OH2  OT    -0.834000       15.9994           0
    3851 WTU1 6555 TIP3 H1   HT     0.417000        1.0079           0
    3852 WTU1 6555 TIP3 H2   HT     0.417000        1.0079           0
    3853 WTU1 6556 TIP3 OH2  OT    -0.834000       15.9994           0
    3854 WTU1 6556 TIP3 H1   HT     0.417000        1.0079           0
    3855 WTU1 6556 TIP3 H2   HT     0.417000        1.0079           0
    3856 WTU1 6575 TIP3 OH2  OT    -0.834000       15.9994           0
    3857 WTU1 6575 TIP3 H1   HT     0.417000        1.0079           0
    3858 WTU1 6575 TIP3 H2   HT     0.417000        1.0079           0
    3859 WTU1 6579 TIP3 OH2  OT    -0.834000       15.9994           0
    3860 WTU1 6579 TIP3 H1   HT     0.417000        1.0079           0
    3861 WTU1 6579 TIP3 H2   HT     0.417000        1.0079           0
    3862 WTU1 6597 TIP3 OH2  OT    -0.834000       15.9994           0
    3863 WTU1 6597 TIP3 H1   HT     0.417000        1.0079           0
    3864 WTU1 6597 TIP3 H2   HT     0.417000        1.0079           0
    3865 WTU1 6600 TIP3 OH2  OT    -0.834000       15.9994           0
    3866 WTU1 6600 TIP3 H1   HT     0.417000        1.0079           0
    3867 WTU1 6600 TIP3 H2   HT     0.417000        1.0079           0
    3868 WTU1 6615 TIP3 OH2  OT    -0.834000       15.9994           0
    3869 WTU1 6615 TIP3 H1   HT     0.417000        1.0079           0
    3870 WTU1 6615 TIP3 H2   HT     0.417000        1.0079           0
    3871 WTU1 6616 TIP3 OH2  OT    -0.834000       15.9994           0
    3872 WTU1 6616 TIP3 H1   HT     0.417000        1.0079           0
    3873 WTU1 6616 TIP3 H2   HT     0.417000        1.0079           0
    3874 WTU1 6621 TIP3 OH2  OT    -0.834000       15.9994           0
    3875 WTU1 6621 TIP3 H1   HT     0.417000        1.0079           0
    3876 WTU1 6621 TIP3 H2   HT     0.417000        1.0079           0
    3877 WTU1 6623 TIP3 OH2  OT    -0.834000       15.9994           0
    3878 WTU1 6623 TIP3 H1   HT     0.417000        1.0079           0
    3879 WTU1 6623 TIP3 H2   HT     0.417000        1.0079           0
    3880 WTU1 6633 TIP3 OH2  OT    -0.834000       15.9994           0
    3881 WTU1 6633 TIP3 H1   HT     0.417000        1.0079           0
    3882 WTU1 6633 TIP3 H2   HT     0.417000        1.0079           0
    3883 WTU1 6636 TIP3 OH2  OT    -0.834000       15.9994           0
    3884 WTU1 6636 TIP3 H1   HT     0.417000        1.0079           0
    3885 WTU1 6636 TIP3 H2   HT     0.417000        1.0079           0
    3886 WTU1 6637 TIP3 OH2  OT    -0.834000       15.9994           0
    3887 WTU1 6637 TIP3 H1   HT     0.417000        1.0079           0
    3888 WTU1 6637 TIP3 H2   HT     0.417000        1.0079           0
    3889 WTU1 6638 TIP3 OH2  OT    -0.834000       15.9994           0
    3890 WTU1 6638 TIP3 H1   HT     0.417000        1.0079           0
    3891 WTU1 6638 TIP3 H2   HT     0.417000        1.0079           0
    3892 WTU1 6639 TIP3 OH2  OT    -0.834000       15.9994           0
    3893 WTU1 6639 TIP3 H1   HT     0.417000        1.0079           0
    3894 WTU1 6639 TIP3 H2   HT     0.417000        1.0079           0
    3895 WTU1 6640 TIP3 OH2  OT    -0.834000       15.9994           0
    3896 WTU1 6640 TIP3 H1   HT     0.417000        1.0079           0
    3897 WTU1 6640 TIP3 H2   HT     0.417000        1.0079           0
    3898 WTU1 6641 TIP3 OH2  OT    -0.834000       15.9994           0
    3899 WTU1 6641 TIP3 H1   HT     0.417000        1.0079           0
    3900 WTU1 6641 TIP3 H2   HT     0.417000        1.0079           0
    3901 WTU1 6642 TIP3 OH2  OT    -0.834000       15.9994           0
    3902 WTU1 6642 TIP3 H1   HT     0.417000        1.0079           0
    3903 WTU1 6642 TIP3 H2   HT     0.417000        1.0079           0
    3904 WTU1 6656 TIP3 OH2  OT    -0.834000       15.9994           0
    3905 WTU1 6656 TIP3 H1   HT     0.417000        1.0079           0
    3906 WTU1 6656 TIP3 H2   HT     0.417000        1.0079           0
    3907 WTU1 6659 TIP3 OH2  OT    -0.834000       15.9994           0
    3908 WTU1 6659 TIP3 H1   HT     0.417000        1.0079           0
    3909 WTU1 6659 TIP3 H2   HT     0.417000        1.0079           0
    3910 WTU1 6660 TIP3 OH2  OT    -0.834000       15.9994           0
    3911 WTU1 6660 TIP3 H1   HT     0.417000        1.0079           0
    3912 WTU1 6660 TIP3 H2   HT     0.417000        1.0079           0
    3913 WTU1 6661 TIP3 OH2  OT    -0.834000       15.9994           0
    3914 WTU1 6661 TIP3 H1   HT     0.417000        1.0079           0
    3915 WTU1 6661 TIP3 H2   HT     0.417000        1.0079           0
    3916 WTU1 6679 TIP3 OH2  OT    -0.834000       15.9994           0
    3917 WTU1 6679 TIP3 H1   HT     0.417000        1.0079           0
    3918 WTU1 6679 TIP3 H2   HT     0.417000        1.0079           0
    3919 WTU1 6681 TIP3 OH2  OT    -0.834000       15.9994           0
    3920 WTU1 6681 TIP3 H1   HT     0.417000        1.0079           0
    3921 WTU1 6681 TIP3 H2   HT     0.417000        1.0079           0
    3922 WTU1 6684 TIP3 OH2  OT    -0.834000       15.9994           0
    3923 WTU1 6684 TIP3 H1   HT     0.417000        1.0079           0
    3924 WTU1 6684 TIP3 H2   HT     0.417000        1.0079           0
    3925 WTU1 6698 TIP3 OH2  OT    -0.834000       15.9994           0
    3926 WTU1 6698 TIP3 H1   HT     0.417000        1.0079           0
    3927 WTU1 6698 TIP3 H2   HT     0.417000        1.0079           0
    3928 WTU1 6700 TIP3 OH2  OT    -0.834000       15.9994           0
    3929 WTU1 6700 TIP3 H1   HT     0.417000        1.0079           0
    3930 WTU1 6700 TIP3 H2   HT     0.417000        1.0079           0
    3931 WTU1 6701 TIP3 OH2  OT    -0.834000       15.9994           0
    3932 WTU1 6701 TIP3 H1   HT     0.417000        1.0079           0
    3933 WTU1 6701 TIP3 H2   HT     0.417000        1.0079           0
    3934 WTU1 6703 TIP3 OH2  OT    -0.834000       15.9994           0
    3935 WTU1 6703 TIP3 H1   HT     0.417000        1.0079           0
    3936 WTU1 6703 TIP3 H2   HT     0.417000        1.0079           0
    3937 WTU1 6704 TIP3 OH2  OT    -0.834000       15.9994           0
    3938 WTU1 6704 TIP3 H1   HT     0.417000        1.0079           0
    3939 WTU1 6704 TIP3 H2   HT     0.417000        1.0079           0
    3940 WTU1 6706 TIP3 OH2  OT    -0.834000       15.9994           0
    3941 WTU1 6706 TIP3 H1   HT     0.417000        1.0079           0
    3942 WTU1 6706 TIP3 H2   HT     0.417000        1.0079           0
    3943 WTU1 6721 TIP3 OH2  OT    -0.834000       15.9994           0
    3944 WTU1 6721 TIP3 H1   HT     0.417000        1.0079           0
    3945 WTU1 6721 TIP3 H2   HT     0.417000        1.0079           0
    3946 WTU1 6740 TIP3 OH2  OT    -0.834000       15.9994           0
    3947 WTU1 6740 TIP3 H1   HT     0.417000        1.0079           0
    3948 WTU1 6740 TIP3 H2   HT     0.417000        1.0079           0
    3949 WTU1 6742 TIP3 OH2  OT    -0.834000       15.9994           0
    3950 WTU1 6742 TIP3 H1   HT     0.417000        1.0079           0
    3951 WTU1 6742 TIP3 H2   HT     0.417000        1.0079           0
    3952 WTU1 6743 TIP3 OH2  OT    -0.834000       15.9994           0
    3953 WTU1 6743 TIP3 H1   HT     0.417000        1.0079           0
    3954 WTU1 6743 TIP3 H2   HT     0.417000        1.0079           0
    3955 WTU1 6745 TIP3 OH2  OT    -0.834000       15.9994           0
    3956 WTU1 6745 TIP3 H1   HT     0.417000        1.0079           0
    3957 WTU1 6745 TIP3 H2   HT     0.417000        1.0079           0
    3958 WTU1 6748 TIP3 OH2  OT    -0.834000       15.9994           0
    3959 WTU1 6748 TIP3 H1   HT     0.417000        1.0079           0
    3960 WTU1 6748 TIP3 H2   HT     0.417000        1.0079           0
    3961 WTU1 6762 TIP3 OH2  OT    -0.834000       15.9994           0
    3962 WTU1 6762 TIP3 H1   HT     0.417000        1.0079           0
    3963 WTU1 6762 TIP3 H2   HT     0.417000        1.0079           0
    3964 WTU1 6763 TIP3 OH2  OT    -0.834000       15.9994           0
    3965 WTU1 6763 TIP3 H1   HT     0.417000        1.0079           0
    3966 WTU1 6763 TIP3 H2   HT     0.417000        1.0079           0
    3967 WTU1 6765 TIP3 OH2  OT    -0.834000       15.9994           0
    3968 WTU1 6765 TIP3 H1   HT     0.417000        1.0079           0
    3969 WTU1 6765 TIP3 H2   HT     0.417000        1.0079           0
    3970 WTU1 6768 TIP3 OH2  OT    -0.834000       15.9994           0
    3971 WTU1 6768 TIP3 H1   HT     0.417000        1.0079           0
    3972 WTU1 6768 TIP3 H2   HT     0.417000        1.0079           0
    3973 WTU1 6786 TIP3 OH2  OT    -0.834000       15.9994           0
    3974 WTU1 6786 TIP3 H1   HT     0.417000        1.0079           0
    3975 WTU1 6786 TIP3 H2   HT     0.417000        1.0079           0
    3976 WTU1 6791 TIP3 OH2  OT    -0.834000       15.9994           0
    3977 WTU1 6791 TIP3 H1   HT     0.417000        1.0079           0
    3978 WTU1 6791 TIP3 H2   HT     0.417000        1.0079           0
    3979 WTU1 6803 TIP3 OH2  OT    -0.834000       15.9994           0
    3980 WTU1 6803 TIP3 H1   HT     0.417000        1.0079           0
    3981 WTU1 6803 TIP3 H2   HT     0.417000        1.0079           0
    3982 WTU1 6807 TIP3 OH2  OT    -0.834000       15.9994           0
    3983 WTU1 6807 TIP3 H1   HT     0.417000        1.0079           0
    3984 WTU1 6807 TIP3 H2   HT     0.417000        1.0079           0
    3985 WTU1 6825 TIP3 OH2  OT    -0.834000       15.9994           0
    3986 WTU1 6825 TIP3 H1   HT     0.417000        1.0079           0
    3987 WTU1 6825 TIP3 H2   HT     0.417000        1.0079           0
    3988 WTU1 6826 TIP3 OH2  OT    -0.834000       15.9994           0
    3989 WTU1 6826 TIP3 H1   HT     0.417000        1.0079           0
    3990 WTU1 6826 TIP3 H2   HT     0.417000        1.0079           0
    3991 WTU1 6827 TIP3 OH2  OT    -0.834000       15.9994           0
    3992 WTU1 6827 TIP3 H1   HT     0.417000        1.0079           0
    3993 WTU1 6827 TIP3 H2   HT     0.417000        1.0079           0
    3994 WTU1 6828 TIP3 OH2  OT    -0.834000       15.9994           0
    3995 WTU1 6828 TIP3 H1   HT     0.417000        1.0079           0
    3996 WTU1 6828 TIP3 H2   HT     0.417000        1.0079           0
    3997 WTU1 6834 TIP3 OH2  OT    -0.834000       15.9994           0
    3998 WTU1 6834 TIP3 H1   HT     0.417000        1.0079           0
    3999 WTU1 6834 TIP3 H2   HT     0.417000        1.0079           0
    4000 WTU1 6846 TIP3 OH2  OT    -0.834000       15.9994           0
    4001 WTU1 6846 TIP3 H1   HT     0.417000        1.0079           0
    4002 WTU1 6846 TIP3 H2   HT     0.417000        1.0079           0
    4003 WTU1 6848 TIP3 OH2  OT    -0.834000       15.9994           0
    4004 WTU1 6848 TIP3 H1   HT     0.417000        1.0079           0
    4005 WTU1 6848 TIP3 H2   HT     0.417000        1.0079           0
    4006 WTU1 6849 TIP3 OH2  OT    -0.834000       15.9994           0
    4007 WTU1 6849 TIP3 H1   HT     0.417000        1.0079           0
    4008 WTU1 6849 TIP3 H2   HT     0.417000        1.0079           0
    4009 WTU1 6850 TIP3 OH2  OT    -0.834000       15.9994           0
    4010 WTU1 6850 TIP3 H1   HT     0.417000        1.0079           0
    4011 WTU1 6850 TIP3 H2   HT     0.417000        1.0079           0
    4012 WTU1 6852 TIP3 OH2  OT    -0.834000       15.9994           0
    4013 WTU1 6852 TIP3 H1   HT     0.417000        1.0079           0
    4014 WTU1 6852 TIP3 H2   HT     0.417000        1.0079           0
    4015 WTU1 6853 TIP3 OH2  OT    -0.834000       15.9994           0
    4016 WTU1 6853 TIP3 H1   HT     0.417000        1.0079           0
    4017 WTU1 6853 TIP3 H2   HT     0.417000        1.0079           0
    4018 WTU1 6866 TIP3 OH2  OT    -0.834000       15.9994           0
    4019 WTU1 6866 TIP3 H1   HT     0.417000        1.0079           0
    4020 WTU1 6866 TIP3 H2   HT     0.417000        1.0079           0
    4021 WTU1 6869 TIP3 OH2  OT    -0.834000       15.9994           0
    4022 WTU1 6869 TIP3 H1   HT     0.417000        1.0079           0
    4023 WTU1 6869 TIP3 H2   HT     0.417000        1.0079           0
    4024 WTU1 6870 TIP3 OH2  OT    -0.834000       15.9994           0
    4025 WTU1 6870 TIP3 H1   HT     0.417000        1.0079           0
    4026 WTU1 6870 TIP3 H2   HT     0.417000        1.0079           0
    4027 WTU1 6874 TIP3 OH2  OT    -0.834000       15.9994           0
    4028 WTU1 6874 TIP3 H1   HT     0.417000        1.0079           0
    4029 WTU1 6874 TIP3 H2   HT     0.417000        1.0079           0
    4030 WTU1 6886 TIP3 OH2  OT    -0.834000       15.9994           0
    4031 WTU1 6886 TIP3 H1   HT     0.417000        1.0079           0
    4032 WTU1 6886 TIP3 H2   HT     0.417000        1.0079           0
    4033 WTU1 6887 TIP3 OH2  OT    -0.834000       15.9994           0
    4034 WTU1 6887 TIP3 H1   HT     0.417000        1.0079           0
    4035 WTU1 6887 TIP3 H2   HT     0.417000        1.0079           0
    4036 WTU1 6889 TIP3 OH2  OT    -0.834000       15.9994           0
    4037 WTU1 6889 TIP3 H1   HT     0.417000        1.0079           0
    4038 WTU1 6889 TIP3 H2   HT     0.417000        1.0079           0
    4039 WTU1 6890 TIP3 OH2  OT    -0.834000       15.9994           0
    4040 WTU1 6890 TIP3 H1   HT     0.417000        1.0079           0
    4041 WTU1 6890 TIP3 H2   HT     0.417000        1.0079           0
    4042 WTU1 6893 TIP3 OH2  OT    -0.834000       15.9994           0
    4043 WTU1 6893 TIP3 H1   HT     0.417000        1.0079           0
    4044 WTU1 6893 TIP3 H2   HT     0.417000        1.0079           0
    4045 WTU1 6896 TIP3 OH2  OT    -0.834000       15.9994           0
    4046 WTU1 6896 TIP3 H1   HT     0.417000        1.0079           0
    4047 WTU1 6896 TIP3 H2   HT     0.417000        1.0079           0
    4048 WTU1 6913 TIP3 OH2  OT    -0.834000       15.9994           0
    4049 WTU1 6913 TIP3 H1   HT     0.417000        1.0079           0
    4050 WTU1 6913 TIP3 H2   HT     0.417000        1.0079           0
    4051 WTU1 6914 TIP3 OH2  OT    -0.834000       15.9994           0
    4052 WTU1 6914 TIP3 H1   HT     0.417000        1.0079           0
    4053 WTU1 6914 TIP3 H2   HT     0.417000        1.0079           0
    4054 WTU1 6928 TIP3 OH2  OT    -0.834000       15.9994           0
    4055 WTU1 6928 TIP3 H1   HT     0.417000        1.0079           0
    4056 WTU1 6928 TIP3 H2   HT     0.417000        1.0079           0
    4057 WTU1 6930 TIP3 OH2  OT    -0.834000       15.9994           0
    4058 WTU1 6930 TIP3 H1   HT     0.417000        1.0079           0
    4059 WTU1 6930 TIP3 H2   HT     0.417000        1.0079           0
    4060 WTU1 6931 TIP3 OH2  OT    -0.834000       15.9994           0
    4061 WTU1 6931 TIP3 H1   HT     0.417000        1.0079           0
    4062 WTU1 6931 TIP3 H2   HT     0.417000        1.0079           0
    4063 WTU1 6932 TIP3 OH2  OT    -0.834000       15.9994           0
    4064 WTU1 6932 TIP3 H1   HT     0.417000        1.0079           0
    4065 WTU1 6932 TIP3 H2   HT     0.417000        1.0079           0
    4066 WTU1 6933 TIP3 OH2  OT    -0.834000       15.9994           0
    4067 WTU1 6933 TIP3 H1   HT     0.417000        1.0079           0
    4068 WTU1 6933 TIP3 H2   HT     0.417000        1.0079           0
    4069 WTU1 6935 TIP3 OH2  OT    -0.834000       15.9994           0
    4070 WTU1 6935 TIP3 H1   HT     0.417000        1.0079           0
    4071 WTU1 6935 TIP3 H2   HT     0.417000        1.0079           0
    4072 WTU1 6936 TIP3 OH2  OT    -0.834000       15.9994           0
    4073 WTU1 6936 TIP3 H1   HT     0.417000        1.0079           0
    4074 WTU1 6936 TIP3 H2   HT     0.417000        1.0079           0
    4075 WTU1 6952 TIP3 OH2  OT    -0.834000       15.9994           0
    4076 WTU1 6952 TIP3 H1   HT     0.417000        1.0079           0
    4077 WTU1 6952 TIP3 H2   HT     0.417000        1.0079           0
    4078 WTU1 6953 TIP3 OH2  OT    -0.834000       15.9994           0
    4079 WTU1 6953 TIP3 H1   HT     0.417000        1.0079           0
    4080 WTU1 6953 TIP3 H2   HT     0.417000        1.0079           0
    4081 WTU1 6955 TIP3 OH2  OT    -0.834000       15.9994           0
    4082 WTU1 6955 TIP3 H1   HT     0.417000        1.0079           0
    4083 WTU1 6955 TIP3 H2   HT     0.417000        1.0079           0
    4084 WTU1 6957 TIP3 OH2  OT    -0.834000       15.9994           0
    4085 WTU1 6957 TIP3 H1   HT     0.417000        1.0079           0
    4086 WTU1 6957 TIP3 H2   HT     0.417000        1.0079           0
    4087 WTU1 6970 TIP3 OH2  OT    -0.834000       15.9994           0
    4088 WTU1 6970 TIP3 H1   HT     0.417000        1.0079           0
    4089 WTU1 6970 TIP3 H2   HT     0.417000        1.0079           0
    4090 WTU1 6977 TIP3 OH2  OT    -0.834000       15.9994           0
    4091 WTU1 6977 TIP3 H1   HT     0.417000        1.0079           0
    4092 WTU1 6977 TIP3 H2   HT     0.417000        1.0079           0
    4093 WTU1 6978 TIP3 OH2  OT    -0.834000       15.9994           0
    4094 WTU1 6978 TIP3 H1   HT     0.417000        1.0079           0
    4095 WTU1 6978 TIP3 H2   HT     0.417000        1.0079           0
    4096 WTU1 6995 TIP3 OH2  OT    -0.834000       15.9994           0
    4097 WTU1 6995 TIP3 H1   HT     0.417000        1.0079           0
    4098 WTU1 6995 TIP3 H2   HT     0.417000        1.0079           0
    4099 WTU1 6997 TIP3 OH2  OT    -0.834000       15.9994           0
    4100 WTU1 6997 TIP3 H1   HT     0.417000        1.0079           0
    4101 WTU1 6997 TIP3 H2   HT     0.417000        1.0079           0
    4102 WTU1 6998 TIP3 OH2  OT    -0.834000       15.9994           0
    4103 WTU1 6998 TIP3 H1   HT     0.417000        1.0079           0
    4104 WTU1 6998 TIP3 H2   HT     0.417000        1.0079           0
    4105 WTU1 6999 TIP3 OH2  OT    -0.834000       15.9994           0
    4106 WTU1 6999 TIP3 H1   HT     0.417000        1.0079           0
    4107 WTU1 6999 TIP3 H2   HT     0.417000        1.0079           0
    4108 WTU1 7011 TIP3 OH2  OT    -0.834000       15.9994           0
    4109 WTU1 7011 TIP3 H1   HT     0.417000        1.0079           0
    4110 WTU1 7011 TIP3 H2   HT     0.417000        1.0079           0
    4111 WTU1 7014 TIP3 OH2  OT    -0.834000       15.9994           0
    4112 WTU1 7014 TIP3 H1   HT     0.417000        1.0079           0
    4113 WTU1 7014 TIP3 H2   HT     0.417000        1.0079           0
    4114 WTU1 7015 TIP3 OH2  OT    -0.834000       15.9994           0
    4115 WTU1 7015 TIP3 H1   HT     0.417000        1.0079           0
    4116 WTU1 7015 TIP3 H2   HT     0.417000        1.0079           0
    4117 WTU1 7017 TIP3 OH2  OT    -0.834000       15.9994           0
    4118 WTU1 7017 TIP3 H1   HT     0.417000        1.0079           0
    4119 WTU1 7017 TIP3 H2   HT     0.417000        1.0079           0
    4120 WTU1 7018 TIP3 OH2  OT    -0.834000       15.9994           0
    4121 WTU1 7018 TIP3 H1   HT     0.417000        1.0079           0
    4122 WTU1 7018 TIP3 H2   HT     0.417000        1.0079           0
    4123 WTU1 7019 TIP3 OH2  OT    -0.834000       15.9994           0
    4124 WTU1 7019 TIP3 H1   HT     0.417000        1.0079           0
    4125 WTU1 7019 TIP3 H2   HT     0.417000        1.0079           0
    4126 WTU1 7038 TIP3 OH2  OT    -0.834000       15.9994           0
    4127 WTU1 7038 TIP3 H1   HT     0.417000        1.0079           0
    4128 WTU1 7038 TIP3 H2   HT     0.417000        1.0079           0
    4129 WTU1 7039 TIP3 OH2  OT    -0.834000       15.9994           0
    4130 WTU1 7039 TIP3 H1   HT     0.417000        1.0079           0
    4131 WTU1 7039 TIP3 H2   HT     0.417000        1.0079           0
    4132 WTU1 7040 TIP3 OH2  OT    -0.834000       15.9994           0
    4133 WTU1 7040 TIP3 H1   HT     0.417000        1.0079           0
    4134 WTU1 7040 TIP3 H2   HT     0.417000        1.0079           0
    4135 WTU1 7042 TIP3 OH2  OT    -0.834000       15.9994           0
    4136 WTU1 7042 TIP3 H1   HT     0.417000        1.0079           0
    4137 WTU1 7042 TIP3 H2   HT     0.417000        1.0079           0
    4138 WTU1 7052 TIP3 OH2  OT    -0.834000       15.9994           0
    4139 WTU1 7052 TIP3 H1   HT     0.417000        1.0079           0
    4140 WTU1 7052 TIP3 H2   HT     0.417000        1.0079           0
    4141 WTU1 7059 TIP3 OH2  OT    -0.834000       15.9994           0
    4142 WTU1 7059 TIP3 H1   HT     0.417000        1.0079           0
    4143 WTU1 7059 TIP3 H2   HT     0.417000        1.0079           0
    4144 WTU1 7061 TIP3 OH2  OT    -0.834000       15.9994           0
    4145 WTU1 7061 TIP3 H1   HT     0.417000        1.0079           0
    4146 WTU1 7061 TIP3 H2   HT     0.417000        1.0079           0
    4147 WTU1 7076 TIP3 OH2  OT    -0.834000       15.9994           0
    4148 WTU1 7076 TIP3 H1   HT     0.417000        1.0079           0
    4149 WTU1 7076 TIP3 H2   HT     0.417000        1.0079           0
    4150 WTU1 7078 TIP3 OH2  OT    -0.834000       15.9994           0
    4151 WTU1 7078 TIP3 H1   HT     0.417000        1.0079           0
    4152 WTU1 7078 TIP3 H2   HT     0.417000        1.0079           0
    4153 WTU1 7081 TIP3 OH2  OT    -0.834000       15.9994           0
    4154 WTU1 7081 TIP3 H1   HT     0.417000        1.0079           0
    4155 WTU1 7081 TIP3 H2   HT     0.417000        1.0079           0
    4156 WTU1 7101 TIP3 OH2  OT    -0.834000       15.9994           0
    4157 WTU1 7101 TIP3 H1   HT     0.417000        1.0079           0
    4158 WTU1 7101 TIP3 H2   HT     0.417000        1.0079           0
    4159 WTU1 7102 TIP3 OH2  OT    -0.834000       15.9994           0
    4160 WTU1 7102 TIP3 H1   HT     0.417000        1.0079           0
    4161 WTU1 7102 TIP3 H2   HT     0.417000        1.0079           0
    4162 WTU1 7107 TIP3 OH2  OT    -0.834000       15.9994           0
    4163 WTU1 7107 TIP3 H1   HT     0.417000        1.0079           0
    4164 WTU1 7107 TIP3 H2   HT     0.417000        1.0079           0
    4165 WTU1 7122 TIP3 OH2  OT    -0.834000       15.9994           0
    4166 WTU1 7122 TIP3 H1   HT     0.417000        1.0079           0
    4167 WTU1 7122 TIP3 H2   HT     0.417000        1.0079           0
    4168 WTU1 7142 TIP3 OH2  OT    -0.834000       15.9994           0
    4169 WTU1 7142 TIP3 H1   HT     0.417000        1.0079           0
    4170 WTU1 7142 TIP3 H2   HT     0.417000        1.0079           0
    4171 WTU1 7143 TIP3 OH2  OT    -0.834000       15.9994           0
    4172 WTU1 7143 TIP3 H1   HT     0.417000        1.0079           0
    4173 WTU1 7143 TIP3 H2   HT     0.417000        1.0079           0
    4174 WTU1 7145 TIP3 OH2  OT    -0.834000       15.9994           0
    4175 WTU1 7145 TIP3 H1   HT     0.417000        1.0079           0
    4176 WTU1 7145 TIP3 H2   HT     0.417000        1.0079           0
    4177 WTU1 7146 TIP3 OH2  OT    -0.834000       15.9994           0
    4178 WTU1 7146 TIP3 H1   HT     0.417000        1.0079           0
    4179 WTU1 7146 TIP3 H2   HT     0.417000        1.0079           0
    4180 WTU1 7147 TIP3 OH2  OT    -0.834000       15.9994           0
    4181 WTU1 7147 TIP3 H1   HT     0.417000        1.0079           0
    4182 WTU1 7147 TIP3 H2   HT     0.417000        1.0079           0
    4183 WTU1 7161 TIP3 OH2  OT    -0.834000       15.9994           0
    4184 WTU1 7161 TIP3 H1   HT     0.417000        1.0079           0
    4185 WTU1 7161 TIP3 H2   HT     0.417000        1.0079           0
    4186 WTU1 7166 TIP3 OH2  OT    -0.834000       15.9994           0
    4187 WTU1 7166 TIP3 H1   HT     0.417000        1.0079           0
    4188 WTU1 7166 TIP3 H2   HT     0.417000        1.0079           0
    4189 WTU1 7179 TIP3 OH2  OT    -0.834000       15.9994           0
    4190 WTU1 7179 TIP3 H1   HT     0.417000        1.0079           0
    4191 WTU1 7179 TIP3 H2   HT     0.417000        1.0079           0
    4192 WTU1 7181 TIP3 OH2  OT    -0.834000       15.9994           0
    4193 WTU1 7181 TIP3 H1   HT     0.417000        1.0079           0
    4194 WTU1 7181 TIP3 H2   HT     0.417000        1.0079           0
    4195 WTU1 7182 TIP3 OH2  OT    -0.834000       15.9994           0
    4196 WTU1 7182 TIP3 H1   HT     0.417000        1.0079           0
    4197 WTU1 7182 TIP3 H2   HT     0.417000        1.0079           0
    4198 WTU1 7183 TIP3 OH2  OT    -0.834000       15.9994           0
    4199 WTU1 7183 TIP3 H1   HT     0.417000        1.0079           0
    4200 WTU1 7183 TIP3 H2   HT     0.417000        1.0079           0
    4201 WTU1 7185 TIP3 OH2  OT    -0.834000       15.9994           0
    4202 WTU1 7185 TIP3 H1   HT     0.417000        1.0079           0
    4203 WTU1 7185 TIP3 H2   HT     0.417000        1.0079           0
    4204 WTU1 7186 TIP3 OH2  OT    -0.834000       15.9994           0
    4205 WTU1 7186 TIP3 H1   HT     0.417000        1.0079           0
    4206 WTU1 7186 TIP3 H2   HT     0.417000        1.0079           0
    4207 WTU1 7188 TIP3 OH2  OT    -0.834000       15.9994           0
    4208 WTU1 7188 TIP3 H1   HT     0.417000        1.0079           0
    4209 WTU1 7188 TIP3 H2   HT     0.417000        1.0079           0
    4210 WTU1 7189 TIP3 OH2  OT    -0.834000       15.9994           0
    4211 WTU1 7189 TIP3 H1   HT     0.417000        1.0079           0
    4212 WTU1 7189 TIP3 H2   HT     0.417000        1.0079           0
    4213 WTU1 7200 TIP3 OH2  OT    -0.834000       15.9994           0
    4214 WTU1 7200 TIP3 H1   HT     0.417000        1.0079           0
    4215 WTU1 7200 TIP3 H2   HT     0.417000        1.0079           0
    4216 WTU1 7203 TIP3 OH2  OT    -0.834000       15.9994           0
    4217 WTU1 7203 TIP3 H1   HT     0.417000        1.0079           0
    4218 WTU1 7203 TIP3 H2   HT     0.417000        1.0079           0
    4219 WTU1 7206 TIP3 OH2  OT    -0.834000       15.9994           0
    4220 WTU1 7206 TIP3 H1   HT     0.417000        1.0079           0
    4221 WTU1 7206 TIP3 H2   HT     0.417000        1.0079           0
    4222 WTU1 7207 TIP3 OH2  OT    -0.834000       15.9994           0
    4223 WTU1 7207 TIP3 H1   HT     0.417000        1.0079           0
    4224 WTU1 7207 TIP3 H2   HT     0.417000        1.0079           0
    4225 WTU1 7209 TIP3 OH2  OT    -0.834000       15.9994           0
    4226 WTU1 7209 TIP3 H1   HT     0.417000        1.0079           0
    4227 WTU1 7209 TIP3 H2   HT     0.417000        1.0079           0
    4228 WTU1 7210 TIP3 OH2  OT    -0.834000       15.9994           0
    4229 WTU1 7210 TIP3 H1   HT     0.417000        1.0079           0
    4230 WTU1 7210 TIP3 H2   HT     0.417000        1.0079           0
    4231 WTU1 7212 TIP3 OH2  OT    -0.834000       15.9994           0
    4232 WTU1 7212 TIP3 H1   HT     0.417000        1.0079           0
    4233 WTU1 7212 TIP3 H2   HT     0.417000        1.0079           0
    4234 WTU1 7213 TIP3 OH2  OT    -0.834000       15.9994           0
    4235 WTU1 7213 TIP3 H1   HT     0.417000        1.0079           0
    4236 WTU1 7213 TIP3 H2   HT     0.417000        1.0079           0
    4237 WTU1 7222 TIP3 OH2  OT    -0.834000       15.9994           0
    4238 WTU1 7222 TIP3 H1   HT     0.417000        1.0079           0
    4239 WTU1 7222 TIP3 H2   HT     0.417000        1.0079           0
    4240 WTU1 7229 TIP3 OH2  OT    -0.834000       15.9994           0
    4241 WTU1 7229 TIP3 H1   HT     0.417000        1.0079           0
    4242 WTU1 7229 TIP3 H2   HT     0.417000        1.0079           0
    4243 WTU1 7230 TIP3 OH2  OT    -0.834000       15.9994           0
    4244 WTU1 7230 TIP3 H1   HT     0.417000        1.0079           0
    4245 WTU1 7230 TIP3 H2   HT     0.417000        1.0079           0
    4246 WTU1 7246 TIP3 OH2  OT    -0.834000       15.9994           0
    4247 WTU1 7246 TIP3 H1   HT     0.417000        1.0079           0
    4248 WTU1 7246 TIP3 H2   HT     0.417000        1.0079           0
    4249 WTU1 7247 TIP3 OH2  OT    -0.834000       15.9994           0
    4250 WTU1 7247 TIP3 H1   HT     0.417000        1.0079           0
    4251 WTU1 7247 TIP3 H2   HT     0.417000        1.0079           0
    4252 WTU1 7248 TIP3 OH2  OT    -0.834000       15.9994           0
    4253 WTU1 7248 TIP3 H1   HT     0.417000        1.0079           0
    4254 WTU1 7248 TIP3 H2   HT     0.417000        1.0079           0
    4255 WTU1 7249 TIP3 OH2  OT    -0.834000       15.9994           0
    4256 WTU1 7249 TIP3 H1   HT     0.417000        1.0079           0
    4257 WTU1 7249 TIP3 H2   HT     0.417000        1.0079           0
    4258 WTU1 7253 TIP3 OH2  OT    -0.834000       15.9994           0
    4259 WTU1 7253 TIP3 H1   HT     0.417000        1.0079           0
    4260 WTU1 7253 TIP3 H2   HT     0.417000        1.0079           0
    4261 WTU1 7264 TIP3 OH2  OT    -0.834000       15.9994           0
    4262 WTU1 7264 TIP3 H1   HT     0.417000        1.0079           0
    4263 WTU1 7264 TIP3 H2   HT     0.417000        1.0079           0
    4264 WTU1 7267 TIP3 OH2  OT    -0.834000       15.9994           0
    4265 WTU1 7267 TIP3 H1   HT     0.417000        1.0079           0
    4266 WTU1 7267 TIP3 H2   HT     0.417000        1.0079           0
    4267 WTU1 7268 TIP3 OH2  OT    -0.834000       15.9994           0
    4268 WTU1 7268 TIP3 H1   HT     0.417000        1.0079           0
    4269 WTU1 7268 TIP3 H2   HT     0.417000        1.0079           0
    4270 WTU1 7269 TIP3 OH2  OT    -0.834000       15.9994           0
    4271 WTU1 7269 TIP3 H1   HT     0.417000        1.0079           0
    4272 WTU1 7269 TIP3 H2   HT     0.417000        1.0079           0
    4273 WTU1 7271 TIP3 OH2  OT    -0.834000       15.9994           0
    4274 WTU1 7271 TIP3 H1   HT     0.417000        1.0079           0
    4275 WTU1 7271 TIP3 H2   HT     0.417000        1.0079           0
    4276 WTU1 7272 TIP3 OH2  OT    -0.834000       15.9994           0
    4277 WTU1 7272 TIP3 H1   HT     0.417000        1.0079           0
    4278 WTU1 7272 TIP3 H2   HT     0.417000        1.0079           0
    4279 WTU1 7287 TIP3 OH2  OT    -0.834000       15.9994           0
    4280 WTU1 7287 TIP3 H1   HT     0.417000        1.0079           0
    4281 WTU1 7287 TIP3 H2   HT     0.417000        1.0079           0
    4282 WTU1 7293 TIP3 OH2  OT    -0.834000       15.9994           0
    4283 WTU1 7293 TIP3 H1   HT     0.417000        1.0079           0
    4284 WTU1 7293 TIP3 H2   HT     0.417000        1.0079           0
    4285 WTU1 7307 TIP3 OH2  OT    -0.834000       15.9994           0
    4286 WTU1 7307 TIP3 H1   HT     0.417000        1.0079           0
    4287 WTU1 7307 TIP3 H2   HT     0.417000        1.0079           0
    4288 WTU1 7310 TIP3 OH2  OT    -0.834000       15.9994           0
    4289 WTU1 7310 TIP3 H1   HT     0.417000        1.0079           0
    4290 WTU1 7310 TIP3 H2   HT     0.417000        1.0079           0
    4291 WTU1 7311 TIP3 OH2  OT    -0.834000       15.9994           0
    4292 WTU1 7311 TIP3 H1   HT     0.417000        1.0079           0
    4293 WTU1 7311 TIP3 H2   HT     0.417000        1.0079           0
    4294 WTU1 7313 TIP3 OH2  OT    -0.834000       15.9994           0
    4295 WTU1 7313 TIP3 H1   HT     0.417000        1.0079           0
    4296 WTU1 7313 TIP3 H2   HT     0.417000        1.0079           0
    4297 WTU1 7314 TIP3 OH2  OT    -0.834000       15.9994           0
    4298 WTU1 7314 TIP3 H1   HT     0.417000        1.0079           0
    4299 WTU1 7314 TIP3 H2   HT     0.417000        1.0079           0
    4300 WTU1 7328 TIP3 OH2  OT    -0.834000       15.9994           0
    4301 WTU1 7328 TIP3 H1   HT     0.417000        1.0079           0
    4302 WTU1 7328 TIP3 H2   HT     0.417000        1.0079           0
    4303 WTU1 7335 TIP3 OH2  OT    -0.834000       15.9994           0
    4304 WTU1 7335 TIP3 H1   HT     0.417000        1.0079           0
    4305 WTU1 7335 TIP3 H2   HT     0.417000        1.0079           0
    4306 WTU1 7351 TIP3 OH2  OT    -0.834000       15.9994           0
    4307 WTU1 7351 TIP3 H1   HT     0.417000        1.0079           0
    4308 WTU1 7351 TIP3 H2   HT     0.417000        1.0079           0
    4309 WTU1 7352 TIP3 OH2  OT    -0.834000       15.9994           0
    4310 WTU1 7352 TIP3 H1   HT     0.417000        1.0079           0
    4311 WTU1 7352 TIP3 H2   HT     0.417000        1.0079           0
    4312 WTU1 7353 TIP3 OH2  OT    -0.834000       15.9994           0
    4313 WTU1 7353 TIP3 H1   HT     0.417000        1.0079           0
    4314 WTU1 7353 TIP3 H2   HT     0.417000        1.0079           0
    4315 WTU1 7354 TIP3 OH2  OT    -0.834000       15.9994           0
    4316 WTU1 7354 TIP3 H1   HT     0.417000        1.0079           0
    4317 WTU1 7354 TIP3 H2   HT     0.417000        1.0079           0
    4318 WTU1 7356 TIP3 OH2  OT    -0.834000       15.9994           0
    4319 WTU1 7356 TIP3 H1   HT     0.417000        1.0079           0
    4320 WTU1 7356 TIP3 H2   HT     0.417000        1.0079           0
    4321 WTU1 7370 TIP3 OH2  OT    -0.834000       15.9994           0
    4322 WTU1 7370 TIP3 H1   HT     0.417000        1.0079           0
    4323 WTU1 7370 TIP3 H2   HT     0.417000        1.0079           0
    4324 WTU1 7371 TIP3 OH2  OT    -0.834000       15.9994           0
    4325 WTU1 7371 TIP3 H1   HT     0.417000        1.0079           0
    4326 WTU1 7371 TIP3 H2   HT     0.417000        1.0079           0
    4327 WTU1 7374 TIP3 OH2  OT    -0.834000       15.9994           0
    4328 WTU1 7374 TIP3 H1   HT     0.417000        1.0079           0
    4329 WTU1 7374 TIP3 H2   HT     0.417000        1.0079           0
    4330 WTU1 7376 TIP3 OH2  OT    -0.834000       15.9994           0
    4331 WTU1 7376 TIP3 H1   HT     0.417000        1.0079           0
    4332 WTU1 7376 TIP3 H2   HT     0.417000        1.0079           0
    4333 WTU1 7378 TIP3 OH2  OT    -0.834000       15.9994           0
    4334 WTU1 7378 TIP3 H1   HT     0.417000        1.0079           0
    4335 WTU1 7378 TIP3 H2   HT     0.417000        1.0079           0
    4336 WTU1 7379 TIP3 OH2  OT    -0.834000       15.9994           0
    4337 WTU1 7379 TIP3 H1   HT     0.417000        1.0079           0
    4338 WTU1 7379 TIP3 H2   HT     0.417000        1.0079           0
    4339 WTU1 7380 TIP3 OH2  OT    -0.834000       15.9994           0
    4340 WTU1 7380 TIP3 H1   HT     0.417000        1.0079           0
    4341 WTU1 7380 TIP3 H2   HT     0.417000        1.0079           0
    4342 WTU1 7381 TIP3 OH2  OT    -0.834000       15.9994           0
    4343 WTU1 7381 TIP3 H1   HT     0.417000        1.0079           0
    4344 WTU1 7381 TIP3 H2   HT     0.417000        1.0079           0
    4345 WTU1 7393 TIP3 OH2  OT    -0.834000       15.9994           0
    4346 WTU1 7393 TIP3 H1   HT     0.417000        1.0079           0
    4347 WTU1 7393 TIP3 H2   HT     0.417000        1.0079           0
    4348 WTU1 7395 TIP3 OH2  OT    -0.834000       15.9994           0
    4349 WTU1 7395 TIP3 H1   HT     0.417000        1.0079           0
    4350 WTU1 7395 TIP3 H2   HT     0.417000        1.0079           0
    4351 WTU1 7397 TIP3 OH2  OT    -0.834000       15.9994           0
    4352 WTU1 7397 TIP3 H1   HT     0.417000        1.0079           0
    4353 WTU1 7397 TIP3 H2   HT     0.417000        1.0079           0
    4354 WTU1 7399 TIP3 OH2  OT    -0.834000       15.9994           0
    4355 WTU1 7399 TIP3 H1   HT     0.417000        1.0079           0
    4356 WTU1 7399 TIP3 H2   HT     0.417000        1.0079           0
    4357 WTU1 7418 TIP3 OH2  OT    -0.834000       15.9994           0
    4358 WTU1 7418 TIP3 H1   HT     0.417000        1.0079           0
    4359 WTU1 7418 TIP3 H2   HT     0.417000        1.0079           0
    4360 WTU1 7434 TIP3 OH2  OT    -0.834000       15.9994           0
    4361 WTU1 7434 TIP3 H1   HT     0.417000        1.0079           0
    4362 WTU1 7434 TIP3 H2   HT     0.417000        1.0079           0
    4363 WTU1 7435 TIP3 OH2  OT    -0.834000       15.9994           0
    4364 WTU1 7435 TIP3 H1   HT     0.417000        1.0079           0
    4365 WTU1 7435 TIP3 H2   HT     0.417000        1.0079           0
    4366 WTU1 7437 TIP3 OH2  OT    -0.834000       15.9994           0
    4367 WTU1 7437 TIP3 H1   HT     0.417000        1.0079           0
    4368 WTU1 7437 TIP3 H2   HT     0.417000        1.0079           0
    4369 WTU1 7439 TIP3 OH2  OT    -0.834000       15.9994           0
    4370 WTU1 7439 TIP3 H1   HT     0.417000        1.0079           0
    4371 WTU1 7439 TIP3 H2   HT     0.417000        1.0079           0
    4372 WTU1 7443 TIP3 OH2  OT    -0.834000       15.9994           0
    4373 WTU1 7443 TIP3 H1   HT     0.417000        1.0079           0
    4374 WTU1 7443 TIP3 H2   HT     0.417000        1.0079           0
    4375 WTU1 7454 TIP3 OH2  OT    -0.834000       15.9994           0
    4376 WTU1 7454 TIP3 H1   HT     0.417000        1.0079           0
    4377 WTU1 7454 TIP3 H2   HT     0.417000        1.0079           0
    4378 WTU1 7455 TIP3 OH2  OT    -0.834000       15.9994           0
    4379 WTU1 7455 TIP3 H1   HT     0.417000        1.0079           0
    4380 WTU1 7455 TIP3 H2   HT     0.417000        1.0079           0
    4381 WTU1 7457 TIP3 OH2  OT    -0.834000       15.9994           0
    4382 WTU1 7457 TIP3 H1   HT     0.417000        1.0079           0
    4383 WTU1 7457 TIP3 H2   HT     0.417000        1.0079           0
    4384 WTU1 7461 TIP3 OH2  OT    -0.834000       15.9994           0
    4385 WTU1 7461 TIP3 H1   HT     0.417000        1.0079           0
    4386 WTU1 7461 TIP3 H2   HT     0.417000        1.0079           0
    4387 WTU1 7463 TIP3 OH2  OT    -0.834000       15.9994           0
    4388 WTU1 7463 TIP3 H1   HT     0.417000        1.0079           0
    4389 WTU1 7463 TIP3 H2   HT     0.417000        1.0079           0
    4390 WTU1 7475 TIP3 OH2  OT    -0.834000       15.9994           0
    4391 WTU1 7475 TIP3 H1   HT     0.417000        1.0079           0
    4392 WTU1 7475 TIP3 H2   HT     0.417000        1.0079           0
    4393 WTU1 7477 TIP3 OH2  OT    -0.834000       15.9994           0
    4394 WTU1 7477 TIP3 H1   HT     0.417000        1.0079           0
    4395 WTU1 7477 TIP3 H2   HT     0.417000        1.0079           0
    4396 WTU1 7479 TIP3 OH2  OT    -0.834000       15.9994           0
    4397 WTU1 7479 TIP3 H1   HT     0.417000        1.0079           0
    4398 WTU1 7479 TIP3 H2   HT     0.417000        1.0079           0
    4399 WTU1 7480 TIP3 OH2  OT    -0.834000       15.9994           0
    4400 WTU1 7480 TIP3 H1   HT     0.417000        1.0079           0
    4401 WTU1 7480 TIP3 H2   HT     0.417000        1.0079           0
    4402 WTU1 7493 TIP3 OH2  OT    -0.834000       15.9994           0
    4403 WTU1 7493 TIP3 H1   HT     0.417000        1.0079           0
    4404 WTU1 7493 TIP3 H2   HT     0.417000        1.0079           0
    4405 WTU1 7496 TIP3 OH2  OT    -0.834000       15.9994           0
    4406 WTU1 7496 TIP3 H1   HT     0.417000        1.0079           0
    4407 WTU1 7496 TIP3 H2   HT     0.417000        1.0079           0
    4408 WTU1 7498 TIP3 OH2  OT    -0.834000       15.9994           0
    4409 WTU1 7498 TIP3 H1   HT     0.417000        1.0079           0
    4410 WTU1 7498 TIP3 H2   HT     0.417000        1.0079           0
    4411 WTU1 7499 TIP3 OH2  OT    -0.834000       15.9994           0
    4412 WTU1 7499 TIP3 H1   HT     0.417000        1.0079           0
    4413 WTU1 7499 TIP3 H2   HT     0.417000        1.0079           0
    4414 WTU1 7500 TIP3 OH2  OT    -0.834000       15.9994           0
    4415 WTU1 7500 TIP3 H1   HT     0.417000        1.0079           0
    4416 WTU1 7500 TIP3 H2   HT     0.417000        1.0079           0
    4417 WTU1 7501 TIP3 OH2  OT    -0.834000       15.9994           0
    4418 WTU1 7501 TIP3 H1   HT     0.417000        1.0079           0
    4419 WTU1 7501 TIP3 H2   HT     0.417000        1.0079           0
    4420 WTU1 7502 TIP3 OH2  OT    -0.834000       15.9994           0
    4421 WTU1 7502 TIP3 H1   HT     0.417000        1.0079           0
    4422 WTU1 7502 TIP3 H2   HT     0.417000        1.0079           0
    4423 WTU1 7503 TIP3 OH2  OT    -0.834000       15.9994           0
    4424 WTU1 7503 TIP3 H1   HT     0.417000        1.0079           0
    4425 WTU1 7503 TIP3 H2   HT     0.417000        1.0079           0
    4426 WTU1 7510 TIP3 OH2  OT    -0.834000       15.9994           0
    4427 WTU1 7510 TIP3 H1   HT     0.417000        1.0079           0
    4428 WTU1 7510 TIP3 H2   HT     0.417000        1.0079           0
    4429 WTU1 7515 TIP3 OH2  OT    -0.834000       15.9994           0
    4430 WTU1 7515 TIP3 H1   HT     0.417000        1.0079           0
    4431 WTU1 7515 TIP3 H2   HT     0.417000        1.0079           0
    4432 WTU1 7518 TIP3 OH2  OT    -0.834000       15.9994           0
    4433 WTU1 7518 TIP3 H1   HT     0.417000        1.0079           0
    4434 WTU1 7518 TIP3 H2   HT     0.417000        1.0079           0
    4435 WTU1 7519 TIP3 OH2  OT    -0.834000       15.9994           0
    4436 WTU1 7519 TIP3 H1   HT     0.417000        1.0079           0
    4437 WTU1 7519 TIP3 H2   HT     0.417000        1.0079           0
    4438 WTU1 7522 TIP3 OH2  OT    -0.834000       15.9994           0
    4439 WTU1 7522 TIP3 H1   HT     0.417000        1.0079           0
    4440 WTU1 7522 TIP3 H2   HT     0.417000        1.0079           0
    4441 WTU1 7523 TIP3 OH2  OT    -0.834000       15.9994           0
    4442 WTU1 7523 TIP3 H1   HT     0.417000        1.0079           0
    4443 WTU1 7523 TIP3 H2   HT     0.417000        1.0079           0
    4444 WTU1 7543 TIP3 OH2  OT    -0.834000       15.9994           0
    4445 WTU1 7543 TIP3 H1   HT     0.417000        1.0079           0
    4446 WTU1 7543 TIP3 H2   HT     0.417000        1.0079           0
    4447 WTU1 7544 TIP3 OH2  OT    -0.834000       15.9994           0
    4448 WTU1 7544 TIP3 H1   HT     0.417000        1.0079           0
    4449 WTU1 7544 TIP3 H2   HT     0.417000        1.0079           0
    4450 WTU1 7559 TIP3 OH2  OT    -0.834000       15.9994           0
    4451 WTU1 7559 TIP3 H1   HT     0.417000        1.0079           0
    4452 WTU1 7559 TIP3 H2   HT     0.417000        1.0079           0
    4453 WTU1 7561 TIP3 OH2  OT    -0.834000       15.9994           0
    4454 WTU1 7561 TIP3 H1   HT     0.417000        1.0079           0
    4455 WTU1 7561 TIP3 H2   HT     0.417000        1.0079           0
    4456 WTU1 7564 TIP3 OH2  OT    -0.834000       15.9994           0
    4457 WTU1 7564 TIP3 H1   HT     0.417000        1.0079           0
    4458 WTU1 7564 TIP3 H2   HT     0.417000        1.0079           0
    4459 WTU1 7565 TIP3 OH2  OT    -0.834000       15.9994           0
    4460 WTU1 7565 TIP3 H1   HT     0.417000        1.0079           0
    4461 WTU1 7565 TIP3 H2   HT     0.417000        1.0079           0
    4462 WTU1 7566 TIP3 OH2  OT    -0.834000       15.9994           0
    4463 WTU1 7566 TIP3 H1   HT     0.417000        1.0079           0
    4464 WTU1 7566 TIP3 H2   HT     0.417000        1.0079           0
    4465 WTU1 7582 TIP3 OH2  OT    -0.834000       15.9994           0
    4466 WTU1 7582 TIP3 H1   HT     0.417000        1.0079           0
    4467 WTU1 7582 TIP3 H2   HT     0.417000        1.0079           0
    4468 WTU1 7584 TIP3 OH2  OT    -0.834000       15.9994           0
    4469 WTU1 7584 TIP3 H1   HT     0.417000        1.0079           0
    4470 WTU1 7584 TIP3 H2   HT     0.417000        1.0079           0
    4471 WTU1 7586 TIP3 OH2  OT    -0.834000       15.9994           0
    4472 WTU1 7586 TIP3 H1   HT     0.417000        1.0079           0
    4473 WTU1 7586 TIP3 H2   HT     0.417000        1.0079           0
    4474 WTU1 7602 TIP3 OH2  OT    -0.834000       15.9994           0
    4475 WTU1 7602 TIP3 H1   HT     0.417000        1.0079           0
    4476 WTU1 7602 TIP3 H2   HT     0.417000        1.0079           0
    4477 WTU1 7603 TIP3 OH2  OT    -0.834000       15.9994           0
    4478 WTU1 7603 TIP3 H1   HT     0.417000        1.0079           0
    4479 WTU1 7603 TIP3 H2   HT     0.417000        1.0079           0
    4480 WTU1 7605 TIP3 OH2  OT    -0.834000       15.9994           0
    4481 WTU1 7605 TIP3 H1   HT     0.417000        1.0079           0
    4482 WTU1 7605 TIP3 H2   HT     0.417000        1.0079           0
    4483 WTU1 7625 TIP3 OH2  OT    -0.834000       15.9994           0
    4484 WTU1 7625 TIP3 H1   HT     0.417000        1.0079           0
    4485 WTU1 7625 TIP3 H2   HT     0.417000        1.0079           0
    4486 WTU1 7626 TIP3 OH2  OT    -0.834000       15.9994           0
    4487 WTU1 7626 TIP3 H1   HT     0.417000        1.0079           0
    4488 WTU1 7626 TIP3 H2   HT     0.417000        1.0079           0
    4489 WTU1 7630 TIP3 OH2  OT    -0.834000       15.9994           0
    4490 WTU1 7630 TIP3 H1   HT     0.417000        1.0079           0
    4491 WTU1 7630 TIP3 H2   HT     0.417000        1.0079           0
    4492 WTU1 7643 TIP3 OH2  OT    -0.834000       15.9994           0
    4493 WTU1 7643 TIP3 H1   HT     0.417000        1.0079           0
    4494 WTU1 7643 TIP3 H2   HT     0.417000        1.0079           0
    4495 WTU1 7644 TIP3 OH2  OT    -0.834000       15.9994           0
    4496 WTU1 7644 TIP3 H1   HT     0.417000        1.0079           0
    4497 WTU1 7644 TIP3 H2   HT     0.417000        1.0079           0
    4498 WTU1 7645 TIP3 OH2  OT    -0.834000       15.9994           0
    4499 WTU1 7645 TIP3 H1   HT     0.417000        1.0079           0
    4500 WTU1 7645 TIP3 H2   HT     0.417000        1.0079           0
    4501 WTU1 7646 TIP3 OH2  OT    -0.834000       15.9994           0
    4502 WTU1 7646 TIP3 H1   HT     0.417000        1.0079           0
    4503 WTU1 7646 TIP3 H2   HT     0.417000        1.0079           0
    4504 WTU1 7647 TIP3 OH2  OT    -0.834000       15.9994           0
    4505 WTU1 7647 TIP3 H1   HT     0.417000        1.0079           0
    4506 WTU1 7647 TIP3 H2   HT     0.417000        1.0079           0
    4507 WTU1 7650 TIP3 OH2  OT    -0.834000       15.9994           0
    4508 WTU1 7650 TIP3 H1   HT     0.417000        1.0079           0
    4509 WTU1 7650 TIP3 H2   HT     0.417000        1.0079           0
    4510 WTU1 7663 TIP3 OH2  OT    -0.834000       15.9994           0
    4511 WTU1 7663 TIP3 H1   HT     0.417000        1.0079           0
    4512 WTU1 7663 TIP3 H2   HT     0.417000        1.0079           0
    4513 WTU1 7669 TIP3 OH2  OT    -0.834000       15.9994           0
    4514 WTU1 7669 TIP3 H1   HT     0.417000        1.0079           0
    4515 WTU1 7669 TIP3 H2   HT     0.417000        1.0079           0
    4516 WTU1 7670 TIP3 OH2  OT    -0.834000       15.9994           0
    4517 WTU1 7670 TIP3 H1   HT     0.417000        1.0079           0
    4518 WTU1 7670 TIP3 H2   HT     0.417000        1.0079           0
    4519 WTU1 7673 TIP3 OH2  OT    -0.834000       15.9994           0
    4520 WTU1 7673 TIP3 H1   HT     0.417000        1.0079           0
    4521 WTU1 7673 TIP3 H2   HT     0.417000        1.0079           0
    4522 WTU1 7686 TIP3 OH2  OT    -0.834000       15.9994           0
    4523 WTU1 7686 TIP3 H1   HT     0.417000        1.0079           0
    4524 WTU1 7686 TIP3 H2   HT     0.417000        1.0079           0
    4525 WTU1 7688 TIP3 OH2  OT    -0.834000       15.9994           0
    4526 WTU1 7688 TIP3 H1   HT     0.417000        1.0079           0
    4527 WTU1 7688 TIP3 H2   HT     0.417000        1.0079           0
    4528 WTU1 7689 TIP3 OH2  OT    -0.834000       15.9994           0
    4529 WTU1 7689 TIP3 H1   HT     0.417000        1.0079           0
    4530 WTU1 7689 TIP3 H2   HT     0.417000        1.0079           0
    4531 WTU1 7690 TIP3 OH2  OT    -0.834000       15.9994           0
    4532 WTU1 7690 TIP3 H1   HT     0.417000        1.0079           0
    4533 WTU1 7690 TIP3 H2   HT     0.417000        1.0079           0
    4534 WTU1 7705 TIP3 OH2  OT    -0.834000       15.9994           0
    4535 WTU1 7705 TIP3 H1   HT     0.417000        1.0079           0
    4536 WTU1 7705 TIP3 H2   HT     0.417000        1.0079           0
    4537 WTU1 7707 TIP3 OH2  OT    -0.834000       15.9994           0
    4538 WTU1 7707 TIP3 H1   HT     0.417000        1.0079           0
    4539 WTU1 7707 TIP3 H2   HT     0.417000        1.0079           0
    4540 WTU1 7708 TIP3 OH2  OT    -0.834000       15.9994           0
    4541 WTU1 7708 TIP3 H1   HT     0.417000        1.0079           0
    4542 WTU1 7708 TIP3 H2   HT     0.417000        1.0079           0
    4543 WTU1 7711 TIP3 OH2  OT    -0.834000       15.9994           0
    4544 WTU1 7711 TIP3 H1   HT     0.417000        1.0079           0
    4545 WTU1 7711 TIP3 H2   HT     0.417000        1.0079           0
    4546 WTU1 7716 TIP3 OH2  OT    -0.834000       15.9994           0
    4547 WTU1 7716 TIP3 H1   HT     0.417000        1.0079           0
    4548 WTU1 7716 TIP3 H2   HT     0.417000        1.0079           0
    4549 WTU1 7718 TIP3 OH2  OT    -0.834000       15.9994           0
    4550 WTU1 7718 TIP3 H1   HT     0.417000        1.0079           0
    4551 WTU1 7718 TIP3 H2   HT     0.417000        1.0079           0
    4552 WTU1 7732 TIP3 OH2  OT    -0.834000       15.9994           0
    4553 WTU1 7732 TIP3 H1   HT     0.417000        1.0079           0
    4554 WTU1 7732 TIP3 H2   HT     0.417000        1.0079           0
    4555 WTU1 7748 TIP3 OH2  OT    -0.834000       15.9994           0
    4556 WTU1 7748 TIP3 H1   HT     0.417000        1.0079           0
    4557 WTU1 7748 TIP3 H2   HT     0.417000        1.0079           0
    4558 WTU1 7750 TIP3 OH2  OT    -0.834000       15.9994           0
    4559 WTU1 7750 TIP3 H1   HT     0.417000        1.0079           0
    4560 WTU1 7750 TIP3 H2   HT     0.417000        1.0079           0
    4561 WTU1 7751 TIP3 OH2  OT    -0.834000       15.9994           0
    4562 WTU1 7751 TIP3 H1   HT     0.417000        1.0079           0
    4563 WTU1 7751 TIP3 H2   HT     0.417000        1.0079           0
    4564 WTU1 7752 TIP3 OH2  OT    -0.834000       15.9994           0
    4565 WTU1 7752 TIP3 H1   HT     0.417000        1.0079           0
    4566 WTU1 7752 TIP3 H2   HT     0.417000        1.0079           0
    4567 WTU1 7753 TIP3 OH2  OT    -0.834000       15.9994           0
    4568 WTU1 7753 TIP3 H1   HT     0.417000        1.0079           0
    4569 WTU1 7753 TIP3 H2   HT     0.417000        1.0079           0
    4570 WTU1 7754 TIP3 OH2  OT    -0.834000       15.9994           0
    4571 WTU1 7754 TIP3 H1   HT     0.417000        1.0079           0
    4572 WTU1 7754 TIP3 H2   HT     0.417000        1.0079           0
    4573 WTU1 7755 TIP3 OH2  OT    -0.834000       15.9994           0
    4574 WTU1 7755 TIP3 H1   HT     0.417000        1.0079           0
    4575 WTU1 7755 TIP3 H2   HT     0.417000        1.0079           0
    4576 WTU1 7771 TIP3 OH2  OT    -0.834000       15.9994           0
    4577 WTU1 7771 TIP3 H1   HT     0.417000        1.0079           0
    4578 WTU1 7771 TIP3 H2   HT     0.417000        1.0079           0
    4579 WTU1 7772 TIP3 OH2  OT    -0.834000       15.9994           0
    4580 WTU1 7772 TIP3 H1   HT     0.417000        1.0079           0
    4581 WTU1 7772 TIP3 H2   HT     0.417000        1.0079           0
    4582 WTU1 7773 TIP3 OH2  OT    -0.834000       15.9994           0
    4583 WTU1 7773 TIP3 H1   HT     0.417000        1.0079           0
    4584 WTU1 7773 TIP3 H2   HT     0.417000        1.0079           0
    4585 WTU1 7774 TIP3 OH2  OT    -0.834000       15.9994           0
    4586 WTU1 7774 TIP3 H1   HT     0.417000        1.0079           0
    4587 WTU1 7774 TIP3 H2   HT     0.417000        1.0079           0
    4588 WTU1 7776 TIP3 OH2  OT    -0.834000       15.9994           0
    4589 WTU1 7776 TIP3 H1   HT     0.417000        1.0079           0
    4590 WTU1 7776 TIP3 H2   HT     0.417000        1.0079           0
    4591 WTU1 7791 TIP3 OH2  OT    -0.834000       15.9994           0
    4592 WTU1 7791 TIP3 H1   HT     0.417000        1.0079           0
    4593 WTU1 7791 TIP3 H2   HT     0.417000        1.0079           0
    4594 WTU1 7793 TIP3 OH2  OT    -0.834000       15.9994           0
    4595 WTU1 7793 TIP3 H1   HT     0.417000        1.0079           0
    4596 WTU1 7793 TIP3 H2   HT     0.417000        1.0079           0
    4597 WTU1 7796 TIP3 OH2  OT    -0.834000       15.9994           0
    4598 WTU1 7796 TIP3 H1   HT     0.417000        1.0079           0
    4599 WTU1 7796 TIP3 H2   HT     0.417000        1.0079           0
    4600 WTU1 7797 TIP3 OH2  OT    -0.834000       15.9994           0
    4601 WTU1 7797 TIP3 H1   HT     0.417000        1.0079           0
    4602 WTU1 7797 TIP3 H2   HT     0.417000        1.0079           0
    4603 WTU1 7811 TIP3 OH2  OT    -0.834000       15.9994           0
    4604 WTU1 7811 TIP3 H1   HT     0.417000        1.0079           0
    4605 WTU1 7811 TIP3 H2   HT     0.417000        1.0079           0
    4606 WTU1 7813 TIP3 OH2  OT    -0.834000       15.9994           0
    4607 WTU1 7813 TIP3 H1   HT     0.417000        1.0079           0
    4608 WTU1 7813 TIP3 H2   HT     0.417000        1.0079           0
    4609 WTU1 7815 TIP3 OH2  OT    -0.834000       15.9994           0
    4610 WTU1 7815 TIP3 H1   HT     0.417000        1.0079           0
    4611 WTU1 7815 TIP3 H2   HT     0.417000        1.0079           0
    4612 WTU1 7817 TIP3 OH2  OT    -0.834000       15.9994           0
    4613 WTU1 7817 TIP3 H1   HT     0.417000        1.0079           0
    4614 WTU1 7817 TIP3 H2   HT     0.417000        1.0079           0
    4615 WTU1 7818 TIP3 OH2  OT    -0.834000       15.9994           0
    4616 WTU1 7818 TIP3 H1   HT     0.417000        1.0079           0
    4617 WTU1 7818 TIP3 H2   HT     0.417000        1.0079           0
    4618 WTU1 7832 TIP3 OH2  OT    -0.834000       15.9994           0
    4619 WTU1 7832 TIP3 H1   HT     0.417000        1.0079           0
    4620 WTU1 7832 TIP3 H2   HT     0.417000        1.0079           0
    4621 WTU1 7833 TIP3 OH2  OT    -0.834000       15.9994           0
    4622 WTU1 7833 TIP3 H1   HT     0.417000        1.0079           0
    4623 WTU1 7833 TIP3 H2   HT     0.417000        1.0079           0
    4624 WTU1 7835 TIP3 OH2  OT    -0.834000       15.9994           0
    4625 WTU1 7835 TIP3 H1   HT     0.417000        1.0079           0
    4626 WTU1 7835 TIP3 H2   HT     0.417000        1.0079           0
    4627 WTU1 7839 TIP3 OH2  OT    -0.834000       15.9994           0
    4628 WTU1 7839 TIP3 H1   HT     0.417000        1.0079           0
    4629 WTU1 7839 TIP3 H2   HT     0.417000        1.0079           0
    4630 WTU1 7840 TIP3 OH2  OT    -0.834000       15.9994           0
    4631 WTU1 7840 TIP3 H1   HT     0.417000        1.0079           0
    4632 WTU1 7840 TIP3 H2   HT     0.417000        1.0079           0
    4633 WTU1 7853 TIP3 OH2  OT    -0.834000       15.9994           0
    4634 WTU1 7853 TIP3 H1   HT     0.417000        1.0079           0
    4635 WTU1 7853 TIP3 H2   HT     0.417000        1.0079           0
    4636 WTU1 7854 TIP3 OH2  OT    -0.834000       15.9994           0
    4637 WTU1 7854 TIP3 H1   HT     0.417000        1.0079           0
    4638 WTU1 7854 TIP3 H2   HT     0.417000        1.0079           0
    4639 WTU1 7856 TIP3 OH2  OT    -0.834000       15.9994           0
    4640 WTU1 7856 TIP3 H1   HT     0.417000        1.0079           0
    4641 WTU1 7856 TIP3 H2   HT     0.417000        1.0079           0
    4642 WTU1 7858 TIP3 OH2  OT    -0.834000       15.9994           0
    4643 WTU1 7858 TIP3 H1   HT     0.417000        1.0079           0
    4644 WTU1 7858 TIP3 H2   HT     0.417000        1.0079           0
    4645 WTU1 7859 TIP3 OH2  OT    -0.834000       15.9994           0
    4646 WTU1 7859 TIP3 H1   HT     0.417000        1.0079           0
    4647 WTU1 7859 TIP3 H2   HT     0.417000        1.0079           0
    4648 WTU1 7872 TIP3 OH2  OT    -0.834000       15.9994           0
    4649 WTU1 7872 TIP3 H1   HT     0.417000        1.0079           0
    4650 WTU1 7872 TIP3 H2   HT     0.417000        1.0079           0
    4651 WTU1 7875 TIP3 OH2  OT    -0.834000       15.9994           0
    4652 WTU1 7875 TIP3 H1   HT     0.417000        1.0079           0
    4653 WTU1 7875 TIP3 H2   HT     0.417000        1.0079           0
    4654 WTU1 7878 TIP3 OH2  OT    -0.834000       15.9994           0
    4655 WTU1 7878 TIP3 H1   HT     0.417000        1.0079           0
    4656 WTU1 7878 TIP3 H2   HT     0.417000        1.0079           0
    4657 WTU1 7880 TIP3 OH2  OT    -0.834000       15.9994           0
    4658 WTU1 7880 TIP3 H1   HT     0.417000        1.0079           0
    4659 WTU1 7880 TIP3 H2   HT     0.417000        1.0079           0
    4660 WTU1 7882 TIP3 OH2  OT    -0.834000       15.9994           0
    4661 WTU1 7882 TIP3 H1   HT     0.417000        1.0079           0
    4662 WTU1 7882 TIP3 H2   HT     0.417000        1.0079           0
    4663 WTU1 7895 TIP3 OH2  OT    -0.834000       15.9994           0
    4664 WTU1 7895 TIP3 H1   HT     0.417000        1.0079           0
    4665 WTU1 7895 TIP3 H2   HT     0.417000        1.0079           0
    4666 WTU1 7900 TIP3 OH2  OT    -0.834000       15.9994           0
    4667 WTU1 7900 TIP3 H1   HT     0.417000        1.0079           0
    4668 WTU1 7900 TIP3 H2   HT     0.417000        1.0079           0
    4669 WTU1 7905 TIP3 OH2  OT    -0.834000       15.9994           0
    4670 WTU1 7905 TIP3 H1   HT     0.417000        1.0079           0
    4671 WTU1 7905 TIP3 H2   HT     0.417000        1.0079           0
    4672 WTU1 7919 TIP3 OH2  OT    -0.834000       15.9994           0
    4673 WTU1 7919 TIP3 H1   HT     0.417000        1.0079           0
    4674 WTU1 7919 TIP3 H2   HT     0.417000        1.0079           0
    4675 WTU1 7920 TIP3 OH2  OT    -0.834000       15.9994           0
    4676 WTU1 7920 TIP3 H1   HT     0.417000        1.0079           0
    4677 WTU1 7920 TIP3 H2   HT     0.417000        1.0079           0
    4678 WTU1 7933 TIP3 OH2  OT    -0.834000       15.9994           0
    4679 WTU1 7933 TIP3 H1   HT     0.417000        1.0079           0
    4680 WTU1 7933 TIP3 H2   HT     0.417000        1.0079           0
    4681 WTU1 7939 TIP3 OH2  OT    -0.834000       15.9994           0
    4682 WTU1 7939 TIP3 H1   HT     0.417000        1.0079           0
    4683 WTU1 7939 TIP3 H2   HT     0.417000        1.0079           0
    4684 WTU1 7940 TIP3 OH2  OT    -0.834000       15.9994           0
    4685 WTU1 7940 TIP3 H1   HT     0.417000        1.0079           0
    4686 WTU1 7940 TIP3 H2   HT     0.417000        1.0079           0
    4687 WTU1 7941 TIP3 OH2  OT    -0.834000       15.9994           0
    4688 WTU1 7941 TIP3 H1   HT     0.417000        1.0079           0
    4689 WTU1 7941 TIP3 H2   HT     0.417000        1.0079           0
    4690 WTU1 7959 TIP3 OH2  OT    -0.834000       15.9994           0
    4691 WTU1 7959 TIP3 H1   HT     0.417000        1.0079           0
    4692 WTU1 7959 TIP3 H2   HT     0.417000        1.0079           0
    4693 WTU1 7965 TIP3 OH2  OT    -0.834000       15.9994           0
    4694 WTU1 7965 TIP3 H1   HT     0.417000        1.0079           0
    4695 WTU1 7965 TIP3 H2   HT     0.417000        1.0079           0
    4696 WTU1 7967 TIP3 OH2  OT    -0.834000       15.9994           0
    4697 WTU1 7967 TIP3 H1   HT     0.417000        1.0079           0
    4698 WTU1 7967 TIP3 H2   HT     0.417000        1.0079           0
    4699 WTU1 7979 TIP3 OH2  OT    -0.834000       15.9994           0
    4700 WTU1 7979 TIP3 H1   HT     0.417000        1.0079           0
    4701 WTU1 7979 TIP3 H2   HT     0.417000        1.0079           0
    4702 WTU1 7981 TIP3 OH2  OT    -0.834000       15.9994           0
    4703 WTU1 7981 TIP3 H1   HT     0.417000        1.0079           0
    4704 WTU1 7981 TIP3 H2   HT     0.417000        1.0079           0
    4705 WTU1 7984 TIP3 OH2  OT    -0.834000       15.9994           0
    4706 WTU1 7984 TIP3 H1   HT     0.417000        1.0079           0
    4707 WTU1 7984 TIP3 H2   HT     0.417000        1.0079           0
    4708 WTU1 7985 TIP3 OH2  OT    -0.834000       15.9994           0
    4709 WTU1 7985 TIP3 H1   HT     0.417000        1.0079           0
    4710 WTU1 7985 TIP3 H2   HT     0.417000        1.0079           0
    4711 WTU1 8003 TIP3 OH2  OT    -0.834000       15.9994           0
    4712 WTU1 8003 TIP3 H1   HT     0.417000        1.0079           0
    4713 WTU1 8003 TIP3 H2   HT     0.417000        1.0079           0
    4714 WTU1 8004 TIP3 OH2  OT    -0.834000       15.9994           0
    4715 WTU1 8004 TIP3 H1   HT     0.417000        1.0079           0
    4716 WTU1 8004 TIP3 H2   HT     0.417000        1.0079           0
    4717 WTU1 8005 TIP3 OH2  OT    -0.834000       15.9994           0
    4718 WTU1 8005 TIP3 H1   HT     0.417000        1.0079           0
    4719 WTU1 8005 TIP3 H2   HT     0.417000        1.0079           0
    4720 WTU1 8007 TIP3 OH2  OT    -0.834000       15.9994           0
    4721 WTU1 8007 TIP3 H1   HT     0.417000        1.0079           0
    4722 WTU1 8007 TIP3 H2   HT     0.417000        1.0079           0
    4723 WTU1 8020 TIP3 OH2  OT    -0.834000       15.9994           0
    4724 WTU1 8020 TIP3 H1   HT     0.417000        1.0079           0
    4725 WTU1 8020 TIP3 H2   HT     0.417000        1.0079           0
    4726 WTU1 8022 TIP3 OH2  OT    -0.834000       15.9994           0
    4727 WTU1 8022 TIP3 H1   HT     0.417000        1.0079           0
    4728 WTU1 8022 TIP3 H2   HT     0.417000        1.0079           0
    4729 WTU1 8023 TIP3 OH2  OT    -0.834000       15.9994           0
    4730 WTU1 8023 TIP3 H1   HT     0.417000        1.0079           0
    4731 WTU1 8023 TIP3 H2   HT     0.417000        1.0079           0
    4732 WTU1 8024 TIP3 OH2  OT    -0.834000       15.9994           0
    4733 WTU1 8024 TIP3 H1   HT     0.417000        1.0079           0
    4734 WTU1 8024 TIP3 H2   HT     0.417000        1.0079           0
    4735 WTU1 8027 TIP3 OH2  OT    -0.834000       15.9994           0
    4736 WTU1 8027 TIP3 H1   HT     0.417000        1.0079           0
    4737 WTU1 8027 TIP3 H2   HT     0.417000        1.0079           0
    4738 WTU1 8030 TIP3 OH2  OT    -0.834000       15.9994           0
    4739 WTU1 8030 TIP3 H1   HT     0.417000        1.0079           0
    4740 WTU1 8030 TIP3 H2   HT     0.417000        1.0079           0
    4741 WTU1 8041 TIP3 OH2  OT    -0.834000       15.9994           0
    4742 WTU1 8041 TIP3 H1   HT     0.417000        1.0079           0
    4743 WTU1 8041 TIP3 H2   HT     0.417000        1.0079           0
    4744 WTU1 8045 TIP3 OH2  OT    -0.834000       15.9994           0
    4745 WTU1 8045 TIP3 H1   HT     0.417000        1.0079           0
    4746 WTU1 8045 TIP3 H2   HT     0.417000        1.0079           0
    4747 WTU1 8046 TIP3 OH2  OT    -0.834000       15.9994           0
    4748 WTU1 8046 TIP3 H1   HT     0.417000        1.0079           0
    4749 WTU1 8046 TIP3 H2   HT     0.417000        1.0079           0
    4750 WTU1 8047 TIP3 OH2  OT    -0.834000       15.9994           0
    4751 WTU1 8047 TIP3 H1   HT     0.417000        1.0079           0
    4752 WTU1 8047 TIP3 H2   HT     0.417000        1.0079           0
    4753 WTU1 8050 TIP3 OH2  OT    -0.834000       15.9994           0
    4754 WTU1 8050 TIP3 H1   HT     0.417000        1.0079           0
    4755 WTU1 8050 TIP3 H2   HT     0.417000        1.0079           0
    4756 WTU1 8063 TIP3 OH2  OT    -0.834000       15.9994           0
    4757 WTU1 8063 TIP3 H1   HT     0.417000        1.0079           0
    4758 WTU1 8063 TIP3 H2   HT     0.417000        1.0079           0
    4759 WTU1 8064 TIP3 OH2  OT    -0.834000       15.9994           0
    4760 WTU1 8064 TIP3 H1   HT     0.417000        1.0079           0
    4761 WTU1 8064 TIP3 H2   HT     0.417000        1.0079           0
    4762 WTU1 8068 TIP3 OH2  OT    -0.834000       15.9994           0
    4763 WTU1 8068 TIP3 H1   HT     0.417000        1.0079           0
    4764 WTU1 8068 TIP3 H2   HT     0.417000        1.0079           0
    4765 WTU1 8069 TIP3 OH2  OT    -0.834000       15.9994           0
    4766 WTU1 8069 TIP3 H1   HT     0.417000        1.0079           0
    4767 WTU1 8069 TIP3 H2   HT     0.417000        1.0079           0
    4768 WTU1 8070 TIP3 OH2  OT    -0.834000       15.9994           0
    4769 WTU1 8070 TIP3 H1   HT     0.417000        1.0079           0
    4770 WTU1 8070 TIP3 H2   HT     0.417000        1.0079           0
    4771 WTU1 8084 TIP3 OH2  OT    -0.834000       15.9994           0
    4772 WTU1 8084 TIP3 H1   HT     0.417000        1.0079           0
    4773 WTU1 8084 TIP3 H2   HT     0.417000        1.0079           0
    4774 WTU1 8085 TIP3 OH2  OT    -0.834000       15.9994           0
    4775 WTU1 8085 TIP3 H1   HT     0.417000        1.0079           0
    4776 WTU1 8085 TIP3 H2   HT     0.417000        1.0079           0
    4777 WTU1 8087 TIP3 OH2  OT    -0.834000       15.9994           0
    4778 WTU1 8087 TIP3 H1   HT     0.417000        1.0079           0
    4779 WTU1 8087 TIP3 H2   HT     0.417000        1.0079           0
    4780 WTU1 8088 TIP3 OH2  OT    -0.834000       15.9994           0
    4781 WTU1 8088 TIP3 H1   HT     0.417000        1.0079           0
    4782 WTU1 8088 TIP3 H2   HT     0.417000        1.0079           0
    4783 WTU1 8092 TIP3 OH2  OT    -0.834000       15.9994           0
    4784 WTU1 8092 TIP3 H1   HT     0.417000        1.0079           0
    4785 WTU1 8092 TIP3 H2   HT     0.417000        1.0079           0
    4786 WTU1 8104 TIP3 OH2  OT    -0.834000       15.9994           0
    4787 WTU1 8104 TIP3 H1   HT     0.417000        1.0079           0
    4788 WTU1 8104 TIP3 H2   HT     0.417000        1.0079           0
    4789 WTU1 8106 TIP3 OH2  OT    -0.834000       15.9994           0
    4790 WTU1 8106 TIP3 H1   HT     0.417000        1.0079           0
    4791 WTU1 8106 TIP3 H2   HT     0.417000        1.0079           0
    4792 WTU1 8107 TIP3 OH2  OT    -0.834000       15.9994           0
    4793 WTU1 8107 TIP3 H1   HT     0.417000        1.0079           0
    4794 WTU1 8107 TIP3 H2   HT     0.417000        1.0079           0
    4795 WTU1 8109 TIP3 OH2  OT    -0.834000       15.9994           0
    4796 WTU1 8109 TIP3 H1   HT     0.417000        1.0079           0
    4797 WTU1 8109 TIP3 H2   HT     0.417000        1.0079           0
    4798 WTU1 8110 TIP3 OH2  OT    -0.834000       15.9994           0
    4799 WTU1 8110 TIP3 H1   HT     0.417000        1.0079           0
    4800 WTU1 8110 TIP3 H2   HT     0.417000        1.0079           0
    4801 WTU1 8111 TIP3 OH2  OT    -0.834000       15.9994           0
    4802 WTU1 8111 TIP3 H1   HT     0.417000        1.0079           0
    4803 WTU1 8111 TIP3 H2   HT     0.417000        1.0079           0
    4804 WTU1 8112 TIP3 OH2  OT    -0.834000       15.9994           0
    4805 WTU1 8112 TIP3 H1   HT     0.417000        1.0079           0
    4806 WTU1 8112 TIP3 H2   HT     0.417000        1.0079           0
    4807 WTU1 8113 TIP3 OH2  OT    -0.834000       15.9994           0
    4808 WTU1 8113 TIP3 H1   HT     0.417000        1.0079           0
    4809 WTU1 8113 TIP3 H2   HT     0.417000        1.0079           0
    4810 WTU1 8126 TIP3 OH2  OT    -0.834000       15.9994           0
    4811 WTU1 8126 TIP3 H1   HT     0.417000        1.0079           0
    4812 WTU1 8126 TIP3 H2   HT     0.417000        1.0079           0
    4813 WTU1 8129 TIP3 OH2  OT    -0.834000       15.9994           0
    4814 WTU1 8129 TIP3 H1   HT     0.417000        1.0079           0
    4815 WTU1 8129 TIP3 H2   HT     0.417000        1.0079           0
    4816 WTU1 8131 TIP3 OH2  OT    -0.834000       15.9994           0
    4817 WTU1 8131 TIP3 H1   HT     0.417000        1.0079           0
    4818 WTU1 8131 TIP3 H2   HT     0.417000        1.0079           0
    4819 WTU1 8136 TIP3 OH2  OT    -0.834000       15.9994           0
    4820 WTU1 8136 TIP3 H1   HT     0.417000        1.0079           0
    4821 WTU1 8136 TIP3 H2   HT     0.417000        1.0079           0
    4822 WTU1 8150 TIP3 OH2  OT    -0.834000       15.9994           0
    4823 WTU1 8150 TIP3 H1   HT     0.417000        1.0079           0
    4824 WTU1 8150 TIP3 H2   HT     0.417000        1.0079           0
    4825 WTU1 8154 TIP3 OH2  OT    -0.834000       15.9994           0
    4826 WTU1 8154 TIP3 H1   HT     0.417000        1.0079           0
    4827 WTU1 8154 TIP3 H2   HT     0.417000        1.0079           0
    4828 WTU1 8157 TIP3 OH2  OT    -0.834000       15.9994           0
    4829 WTU1 8157 TIP3 H1   HT     0.417000        1.0079           0
    4830 WTU1 8157 TIP3 H2   HT     0.417000        1.0079           0
    4831 WTU1 8169 TIP3 OH2  OT    -0.834000       15.9994           0
    4832 WTU1 8169 TIP3 H1   HT     0.417000        1.0079           0
    4833 WTU1 8169 TIP3 H2   HT     0.417000        1.0079           0
    4834 WTU1 8171 TIP3 OH2  OT    -0.834000       15.9994           0
    4835 WTU1 8171 TIP3 H1   HT     0.417000        1.0079           0
    4836 WTU1 8171 TIP3 H2   HT     0.417000        1.0079           0
    4837 WTU1 8173 TIP3 OH2  OT    -0.834000       15.9994           0
    4838 WTU1 8173 TIP3 H1   HT     0.417000        1.0079           0
    4839 WTU1 8173 TIP3 H2   HT     0.417000        1.0079           0
    4840 WTU1 8174 TIP3 OH2  OT    -0.834000       15.9994           0
    4841 WTU1 8174 TIP3 H1   HT     0.417000        1.0079           0
    4842 WTU1 8174 TIP3 H2   HT     0.417000        1.0079           0
    4843 WTU1 8192 TIP3 OH2  OT    -0.834000       15.9994           0
    4844 WTU1 8192 TIP3 H1   HT     0.417000        1.0079           0
    4845 WTU1 8192 TIP3 H2   HT     0.417000        1.0079           0
    4846 WTU1 8193 TIP3 OH2  OT    -0.834000       15.9994           0
    4847 WTU1 8193 TIP3 H1   HT     0.417000        1.0079           0
    4848 WTU1 8193 TIP3 H2   HT     0.417000        1.0079           0
    4849 WTU1 8194 TIP3 OH2  OT    -0.834000       15.9994           0
    4850 WTU1 8194 TIP3 H1   HT     0.417000        1.0079           0
    4851 WTU1 8194 TIP3 H2   HT     0.417000        1.0079           0
    4852 WTU1 8211 TIP3 OH2  OT    -0.834000       15.9994           0
    4853 WTU1 8211 TIP3 H1   HT     0.417000        1.0079           0
    4854 WTU1 8211 TIP3 H2   HT     0.417000        1.0079           0
    4855 WTU1 8212 TIP3 OH2  OT    -0.834000       15.9994           0
    4856 WTU1 8212 TIP3 H1   HT     0.417000        1.0079           0
    4857 WTU1 8212 TIP3 H2   HT     0.417000        1.0079           0
    4858 WTU1 8231 TIP3 OH2  OT    -0.834000       15.9994           0
    4859 WTU1 8231 TIP3 H1   HT     0.417000        1.0079           0
    4860 WTU1 8231 TIP3 H2   HT     0.417000        1.0079           0
    4861 WTU1 8233 TIP3 OH2  OT    -0.834000       15.9994           0
    4862 WTU1 8233 TIP3 H1   HT     0.417000        1.0079           0
    4863 WTU1 8233 TIP3 H2   HT     0.417000        1.0079           0
    4864 WTU1 8234 TIP3 OH2  OT    -0.834000       15.9994           0
    4865 WTU1 8234 TIP3 H1   HT     0.417000        1.0079           0
    4866 WTU1 8234 TIP3 H2   HT     0.417000        1.0079           0
    4867 WTU1 8235 TIP3 OH2  OT    -0.834000       15.9994           0
    4868 WTU1 8235 TIP3 H1   HT     0.417000        1.0079           0
    4869 WTU1 8235 TIP3 H2   HT     0.417000        1.0079           0
    4870 WTU1 8239 TIP3 OH2  OT    -0.834000       15.9994           0
    4871 WTU1 8239 TIP3 H1   HT     0.417000        1.0079           0
    4872 WTU1 8239 TIP3 H2   HT     0.417000        1.0079           0
    4873 WTU1 8254 TIP3 OH2  OT    -0.834000       15.9994           0
    4874 WTU1 8254 TIP3 H1   HT     0.417000        1.0079           0
    4875 WTU1 8254 TIP3 H2   HT     0.417000        1.0079           0
    4876 WTU1 8256 TIP3 OH2  OT    -0.834000       15.9994           0
    4877 WTU1 8256 TIP3 H1   HT     0.417000        1.0079           0
    4878 WTU1 8256 TIP3 H2   HT     0.417000        1.0079           0
    4879 WTU1 8257 TIP3 OH2  OT    -0.834000       15.9994           0
    4880 WTU1 8257 TIP3 H1   HT     0.417000        1.0079           0
    4881 WTU1 8257 TIP3 H2   HT     0.417000        1.0079           0
    4882 WTU1 8258 TIP3 OH2  OT    -0.834000       15.9994           0
    4883 WTU1 8258 TIP3 H1   HT     0.417000        1.0079           0
    4884 WTU1 8258 TIP3 H2   HT     0.417000        1.0079           0
    4885 WTU1 8276 TIP3 OH2  OT    -0.834000       15.9994           0
    4886 WTU1 8276 TIP3 H1   HT     0.417000        1.0079           0
    4887 WTU1 8276 TIP3 H2   HT     0.417000        1.0079           0
    4888 WTU1 8278 TIP3 OH2  OT    -0.834000       15.9994           0
    4889 WTU1 8278 TIP3 H1   HT     0.417000        1.0079           0
    4890 WTU1 8278 TIP3 H2   HT     0.417000        1.0079           0
    4891 WTU1 8281 TIP3 OH2  OT    -0.834000       15.9994           0
    4892 WTU1 8281 TIP3 H1   HT     0.417000        1.0079           0
    4893 WTU1 8281 TIP3 H2   HT     0.417000        1.0079           0
    4894 WTU1 8296 TIP3 OH2  OT    -0.834000       15.9994           0
    4895 WTU1 8296 TIP3 H1   HT     0.417000        1.0079           0
    4896 WTU1 8296 TIP3 H2   HT     0.417000        1.0079           0
    4897 WTU1 8300 TIP3 OH2  OT    -0.834000       15.9994           0
    4898 WTU1 8300 TIP3 H1   HT     0.417000        1.0079           0
    4899 WTU1 8300 TIP3 H2   HT     0.417000        1.0079           0
    4900 WTU1 8301 TIP3 OH2  OT    -0.834000       15.9994           0
    4901 WTU1 8301 TIP3 H1   HT     0.417000        1.0079           0
    4902 WTU1 8301 TIP3 H2   HT     0.417000        1.0079           0
    4903 WTU1 8315 TIP3 OH2  OT    -0.834000       15.9994           0
    4904 WTU1 8315 TIP3 H1   HT     0.417000        1.0079           0
    4905 WTU1 8315 TIP3 H2   HT     0.417000        1.0079           0
    4906 WTU1 8319 TIP3 OH2  OT    -0.834000       15.9994           0
    4907 WTU1 8319 TIP3 H1   HT     0.417000        1.0079           0
    4908 WTU1 8319 TIP3 H2   HT     0.417000        1.0079           0
    4909 WTU1 8338 TIP3 OH2  OT    -0.834000       15.9994           0
    4910 WTU1 8338 TIP3 H1   HT     0.417000        1.0079           0
    4911 WTU1 8338 TIP3 H2   HT     0.417000        1.0079           0
    4912 WTU1 8345 TIP3 OH2  OT    -0.834000       15.9994           0
    4913 WTU1 8345 TIP3 H1   HT     0.417000        1.0079           0
    4914 WTU1 8345 TIP3 H2   HT     0.417000        1.0079           0
    4915 WTU1 8363 TIP3 OH2  OT    -0.834000       15.9994           0
    4916 WTU1 8363 TIP3 H1   HT     0.417000        1.0079           0
    4917 WTU1 8363 TIP3 H2   HT     0.417000        1.0079           0
    4918 WTU1 8366 TIP3 OH2  OT    -0.834000       15.9994           0
    4919 WTU1 8366 TIP3 H1   HT     0.417000        1.0079           0
    4920 WTU1 8366 TIP3 H2   HT     0.417000        1.0079           0
    4921 WTU1 8367 TIP3 OH2  OT    -0.834000       15.9994           0
    4922 WTU1 8367 TIP3 H1   HT     0.417000        1.0079           0
    4923 WTU1 8367 TIP3 H2   HT     0.417000        1.0079           0
    4924 WTU1 8377 TIP3 OH2  OT    -0.834000       15.9994           0
    4925 WTU1 8377 TIP3 H1   HT     0.417000        1.0079           0
    4926 WTU1 8377 TIP3 H2   HT     0.417000        1.0079           0
    4927 WTU1 8378 TIP3 OH2  OT    -0.834000       15.9994           0
    4928 WTU1 8378 TIP3 H1   HT     0.417000        1.0079           0
    4929 WTU1 8378 TIP3 H2   HT     0.417000        1.0079           0
    4930 WTU1 8379 TIP3 OH2  OT    -0.834000       15.9994           0
    4931 WTU1 8379 TIP3 H1   HT     0.417000        1.0079           0
    4932 WTU1 8379 TIP3 H2   HT     0.417000        1.0079           0
    4933 WTU1 8380 TIP3 OH2  OT    -0.834000       15.9994           0
    4934 WTU1 8380 TIP3 H1   HT     0.417000        1.0079           0
    4935 WTU1 8380 TIP3 H2   HT     0.417000        1.0079           0
    4936 WTU1 8381 TIP3 OH2  OT    -0.834000       15.9994           0
    4937 WTU1 8381 TIP3 H1   HT     0.417000        1.0079           0
    4938 WTU1 8381 TIP3 H2   HT     0.417000        1.0079           0
    4939 WTU1 8382 TIP3 OH2  OT    -0.834000       15.9994           0
    4940 WTU1 8382 TIP3 H1   HT     0.417000        1.0079           0
    4941 WTU1 8382 TIP3 H2   HT     0.417000        1.0079           0
    4942 WTU1 8385 TIP3 OH2  OT    -0.834000       15.9994           0
    4943 WTU1 8385 TIP3 H1   HT     0.417000        1.0079           0
    4944 WTU1 8385 TIP3 H2   HT     0.417000        1.0079           0
    4945 WTU1 8403 TIP3 OH2  OT    -0.834000       15.9994           0
    4946 WTU1 8403 TIP3 H1   HT     0.417000        1.0079           0
    4947 WTU1 8403 TIP3 H2   HT     0.417000        1.0079           0
    4948 WTU1 8425 TIP3 OH2  OT    -0.834000       15.9994           0
    4949 WTU1 8425 TIP3 H1   HT     0.417000        1.0079           0
    4950 WTU1 8425 TIP3 H2   HT     0.417000        1.0079           0
    4951 WTU1 8427 TIP3 OH2  OT    -0.834000       15.9994           0
    4952 WTU1 8427 TIP3 H1   HT     0.417000        1.0079           0
    4953 WTU1 8427 TIP3 H2   HT     0.417000        1.0079           0
    4954 WTU1 8428 TIP3 OH2  OT    -0.834000       15.9994           0
    4955 WTU1 8428 TIP3 H1   HT     0.417000        1.0079           0
    4956 WTU1 8428 TIP3 H2   HT     0.417000        1.0079           0
    4957 WTU1 8441 TIP3 OH2  OT    -0.834000       15.9994           0
    4958 WTU1 8441 TIP3 H1   HT     0.417000        1.0079           0
    4959 WTU1 8441 TIP3 H2   HT     0.417000        1.0079           0
    4960 WTU1 8442 TIP3 OH2  OT    -0.834000       15.9994           0
    4961 WTU1 8442 TIP3 H1   HT     0.417000        1.0079           0
    4962 WTU1 8442 TIP3 H2   HT     0.417000        1.0079           0
    4963 WTU1 8444 TIP3 OH2  OT    -0.834000       15.9994           0
    4964 WTU1 8444 TIP3 H1   HT     0.417000        1.0079           0
    4965 WTU1 8444 TIP3 H2   HT     0.417000        1.0079           0
    4966 WTU1 8446 TIP3 OH2  OT    -0.834000       15.9994           0
    4967 WTU1 8446 TIP3 H1   HT     0.417000        1.0079           0
    4968 WTU1 8446 TIP3 H2   HT     0.417000        1.0079           0
    4969 WTU1 8462 TIP3 OH2  OT    -0.834000       15.9994           0
    4970 WTU1 8462 TIP3 H1   HT     0.417000        1.0079           0
    4971 WTU1 8462 TIP3 H2   HT     0.417000        1.0079           0
    4972 WTU1 8463 TIP3 OH2  OT    -0.834000       15.9994           0
    4973 WTU1 8463 TIP3 H1   HT     0.417000        1.0079           0
    4974 WTU1 8463 TIP3 H2   HT     0.417000        1.0079           0
    4975 WTU1 8465 TIP3 OH2  OT    -0.834000       15.9994           0
    4976 WTU1 8465 TIP3 H1   HT     0.417000        1.0079           0
    4977 WTU1 8465 TIP3 H2   HT     0.417000        1.0079           0
    4978 WTU1 8466 TIP3 OH2  OT    -0.834000       15.9994           0
    4979 WTU1 8466 TIP3 H1   HT     0.417000        1.0079           0
    4980 WTU1 8466 TIP3 H2   HT     0.417000        1.0079           0
    4981 WTU1 8468 TIP3 OH2  OT    -0.834000       15.9994           0
    4982 WTU1 8468 TIP3 H1   HT     0.417000        1.0079           0
    4983 WTU1 8468 TIP3 H2   HT     0.417000        1.0079           0
    4984 WTU1 8486 TIP3 OH2  OT    -0.834000       15.9994           0
    4985 WTU1 8486 TIP3 H1   HT     0.417000        1.0079           0
    4986 WTU1 8486 TIP3 H2   HT     0.417000        1.0079           0
    4987 WTU1 8487 TIP3 OH2  OT    -0.834000       15.9994           0
    4988 WTU1 8487 TIP3 H1   HT     0.417000        1.0079           0
    4989 WTU1 8487 TIP3 H2   HT     0.417000        1.0079           0
    4990 WTU1 8488 TIP3 OH2  OT    -0.834000       15.9994           0
    4991 WTU1 8488 TIP3 H1   HT     0.417000        1.0079           0
    4992 WTU1 8488 TIP3 H2   HT     0.417000        1.0079           0
    4993 WTU1 8504 TIP3 OH2  OT    -0.834000       15.9994           0
    4994 WTU1 8504 TIP3 H1   HT     0.417000        1.0079           0
    4995 WTU1 8504 TIP3 H2   HT     0.417000        1.0079           0
    4996 WTU1 8505 TIP3 OH2  OT    -0.834000       15.9994           0
    4997 WTU1 8505 TIP3 H1   HT     0.417000        1.0079           0
    4998 WTU1 8505 TIP3 H2   HT     0.417000        1.0079           0
    4999 WTU1 8507 TIP3 OH2  OT    -0.834000       15.9994           0
    5000 WTU1 8507 TIP3 H1   HT     0.417000        1.0079           0
    5001 WTU1 8507 TIP3 H2   HT     0.417000        1.0079           0
    5002 WTU1 8508 TIP3 OH2  OT    -0.834000       15.9994           0
    5003 WTU1 8508 TIP3 H1   HT     0.417000        1.0079           0
    5004 WTU1 8508 TIP3 H2   HT     0.417000        1.0079           0
    5005 WTU1 8509 TIP3 OH2  OT    -0.834000       15.9994           0
    5006 WTU1 8509 TIP3 H1   HT     0.417000        1.0079           0
    5007 WTU1 8509 TIP3 H2   HT     0.417000        1.0079           0
    5008 WTU1 8513 TIP3 OH2  OT    -0.834000       15.9994           0
    5009 WTU1 8513 TIP3 H1   HT     0.417000        1.0079           0
    5010 WTU1 8513 TIP3 H2   HT     0.417000        1.0079           0
    5011 WTU1 8528 TIP3 OH2  OT    -0.834000       15.9994           0
    5012 WTU1 8528 TIP3 H1   HT     0.417000        1.0079           0
    5013 WTU1 8528 TIP3 H2   HT     0.417000        1.0079           0
    5014 WTU1 8529 TIP3 OH2  OT    -0.834000       15.9994           0
    5015 WTU1 8529 TIP3 H1   HT     0.417000        1.0079           0
    5016 WTU1 8529 TIP3 H2   HT     0.417000        1.0079           0
    5017 WTU1 8530 TIP3 OH2  OT    -0.834000       15.9994           0
    5018 WTU1 8530 TIP3 H1   HT     0.417000        1.0079           0
    5019 WTU1 8530 TIP3 H2   HT     0.417000        1.0079           0
    5020 WTU1 8531 TIP3 OH2  OT    -0.834000       15.9994           0
    5021 WTU1 8531 TIP3 H1   HT     0.417000        1.0079           0
    5022 WTU1 8531 TIP3 H2   HT     0.417000        1.0079           0
    5023 WTU1 8532 TIP3 OH2  OT    -0.834000       15.9994           0
    5024 WTU1 8532 TIP3 H1   HT     0.417000        1.0079           0
    5025 WTU1 8532 TIP3 H2   HT     0.417000        1.0079           0
    5026 WTU1 8533 TIP3 OH2  OT    -0.834000       15.9994           0
    5027 WTU1 8533 TIP3 H1   HT     0.417000        1.0079           0
    5028 WTU1 8533 TIP3 H2   HT     0.417000        1.0079           0
    5029 WTU1 8534 TIP3 OH2  OT    -0.834000       15.9994           0
    5030 WTU1 8534 TIP3 H1   HT     0.417000        1.0079           0
    5031 WTU1 8534 TIP3 H2   HT     0.417000        1.0079           0
    5032 WTU1 8535 TIP3 OH2  OT    -0.834000       15.9994           0
    5033 WTU1 8535 TIP3 H1   HT     0.417000        1.0079           0
    5034 WTU1 8535 TIP3 H2   HT     0.417000        1.0079           0
    5035 WTU1 8548 TIP3 OH2  OT    -0.834000       15.9994           0
    5036 WTU1 8548 TIP3 H1   HT     0.417000        1.0079           0
    5037 WTU1 8548 TIP3 H2   HT     0.417000        1.0079           0
    5038 WTU1 8550 TIP3 OH2  OT    -0.834000       15.9994           0
    5039 WTU1 8550 TIP3 H1   HT     0.417000        1.0079           0
    5040 WTU1 8550 TIP3 H2   HT     0.417000        1.0079           0
    5041 WTU1 8551 TIP3 OH2  OT    -0.834000       15.9994           0
    5042 WTU1 8551 TIP3 H1   HT     0.417000        1.0079           0
    5043 WTU1 8551 TIP3 H2   HT     0.417000        1.0079           0
    5044 WTU1 8572 TIP3 OH2  OT    -0.834000       15.9994           0
    5045 WTU1 8572 TIP3 H1   HT     0.417000        1.0079           0
    5046 WTU1 8572 TIP3 H2   HT     0.417000        1.0079           0
    5047 WTU1 8573 TIP3 OH2  OT    -0.834000       15.9994           0
    5048 WTU1 8573 TIP3 H1   HT     0.417000        1.0079           0
    5049 WTU1 8573 TIP3 H2   HT     0.417000        1.0079           0
    5050 WTU1 8589 TIP3 OH2  OT    -0.834000       15.9994           0
    5051 WTU1 8589 TIP3 H1   HT     0.417000        1.0079           0
    5052 WTU1 8589 TIP3 H2   HT     0.417000        1.0079           0
    5053 WTU1 8590 TIP3 OH2  OT    -0.834000       15.9994           0
    5054 WTU1 8590 TIP3 H1   HT     0.417000        1.0079           0
    5055 WTU1 8590 TIP3 H2   HT     0.417000        1.0079           0
    5056 WTU1 8592 TIP3 OH2  OT    -0.834000       15.9994           0
    5057 WTU1 8592 TIP3 H1   HT     0.417000        1.0079           0
    5058 WTU1 8592 TIP3 H2   HT     0.417000        1.0079           0
    5059 WTU1 8593 TIP3 OH2  OT    -0.834000       15.9994           0
    5060 WTU1 8593 TIP3 H1   HT     0.417000        1.0079           0
    5061 WTU1 8593 TIP3 H2   HT     0.417000        1.0079           0
    5062 WTU1 8594 TIP3 OH2  OT    -0.834000       15.9994           0
    5063 WTU1 8594 TIP3 H1   HT     0.417000        1.0079           0
    5064 WTU1 8594 TIP3 H2   HT     0.417000        1.0079           0
    5065 WTU1 8611 TIP3 OH2  OT    -0.834000       15.9994           0
    5066 WTU1 8611 TIP3 H1   HT     0.417000        1.0079           0
    5067 WTU1 8611 TIP3 H2   HT     0.417000        1.0079           0
    5068 WTU1 8613 TIP3 OH2  OT    -0.834000       15.9994           0
    5069 WTU1 8613 TIP3 H1   HT     0.417000        1.0079           0
    5070 WTU1 8613 TIP3 H2   HT     0.417000        1.0079           0
    5071 WTU1 8617 TIP3 OH2  OT    -0.834000       15.9994           0
    5072 WTU1 8617 TIP3 H1   HT     0.417000        1.0079           0
    5073 WTU1 8617 TIP3 H2   HT     0.417000        1.0079           0
    5074 WTU1 8631 TIP3 OH2  OT    -0.834000       15.9994           0
    5075 WTU1 8631 TIP3 H1   HT     0.417000        1.0079           0
    5076 WTU1 8631 TIP3 H2   HT     0.417000        1.0079           0
    5077 WTU1 8633 TIP3 OH2  OT    -0.834000       15.9994           0
    5078 WTU1 8633 TIP3 H1   HT     0.417000        1.0079           0
    5079 WTU1 8633 TIP3 H2   HT     0.417000        1.0079           0
    5080 WTU1 8634 TIP3 OH2  OT    -0.834000       15.9994           0
    5081 WTU1 8634 TIP3 H1   HT     0.417000        1.0079           0
    5082 WTU1 8634 TIP3 H2   HT     0.417000        1.0079           0
    5083 WTU1 8653 TIP3 OH2  OT    -0.834000       15.9994           0
    5084 WTU1 8653 TIP3 H1   HT     0.417000        1.0079           0
    5085 WTU1 8653 TIP3 H2   HT     0.417000        1.0079           0
    5086 WTU1 8656 TIP3 OH2  OT    -0.834000       15.9994           0
    5087 WTU1 8656 TIP3 H1   HT     0.417000        1.0079           0
    5088 WTU1 8656 TIP3 H2   HT     0.417000        1.0079           0
    5089 WTU1 8657 TIP3 OH2  OT    -0.834000       15.9994           0
    5090 WTU1 8657 TIP3 H1   HT     0.417000        1.0079           0
    5091 WTU1 8657 TIP3 H2   HT     0.417000        1.0079           0
    5092 WTU1 8675 TIP3 OH2  OT    -0.834000       15.9994           0
    5093 WTU1 8675 TIP3 H1   HT     0.417000        1.0079           0
    5094 WTU1 8675 TIP3 H2   HT     0.417000        1.0079           0
    5095 WTU1 8676 TIP3 OH2  OT    -0.834000       15.9994           0
    5096 WTU1 8676 TIP3 H1   HT     0.417000        1.0079           0
    5097 WTU1 8676 TIP3 H2   HT     0.417000        1.0079           0
    5098 WTU1 8677 TIP3 OH2  OT    -0.834000       15.9994           0
    5099 WTU1 8677 TIP3 H1   HT     0.417000        1.0079           0
    5100 WTU1 8677 TIP3 H2   HT     0.417000        1.0079           0
    5101 WTU1 8679 TIP3 OH2  OT    -0.834000       15.9994           0
    5102 WTU1 8679 TIP3 H1   HT     0.417000        1.0079           0
    5103 WTU1 8679 TIP3 H2   HT     0.417000        1.0079           0
    5104 WTU1 8691 TIP3 OH2  OT    -0.834000       15.9994           0
    5105 WTU1 8691 TIP3 H1   HT     0.417000        1.0079           0
    5106 WTU1 8691 TIP3 H2   HT     0.417000        1.0079           0
    5107 WTU1 8694 TIP3 OH2  OT    -0.834000       15.9994           0
    5108 WTU1 8694 TIP3 H1   HT     0.417000        1.0079           0
    5109 WTU1 8694 TIP3 H2   HT     0.417000        1.0079           0
    5110 WTU1 8695 TIP3 OH2  OT    -0.834000       15.9994           0
    5111 WTU1 8695 TIP3 H1   HT     0.417000        1.0079           0
    5112 WTU1 8695 TIP3 H2   HT     0.417000        1.0079           0
    5113 WTU1 8696 TIP3 OH2  OT    -0.834000       15.9994           0
    5114 WTU1 8696 TIP3 H1   HT     0.417000        1.0079           0
    5115 WTU1 8696 TIP3 H2   HT     0.417000        1.0079           0
    5116 WTU1 8697 TIP3 OH2  OT    -0.834000       15.9994           0
    5117 WTU1 8697 TIP3 H1   HT     0.417000        1.0079           0
    5118 WTU1 8697 TIP3 H2   HT     0.417000        1.0079           0
    5119 WTU1 8699 TIP3 OH2  OT    -0.834000       15.9994           0
    5120 WTU1 8699 TIP3 H1   HT     0.417000        1.0079           0
    5121 WTU1 8699 TIP3 H2   HT     0.417000        1.0079           0
    5122 WTU1 8704 TIP3 OH2  OT    -0.834000       15.9994           0
    5123 WTU1 8704 TIP3 H1   HT     0.417000        1.0079           0
    5124 WTU1 8704 TIP3 H2   HT     0.417000        1.0079           0
    5125 WTU1 8715 TIP3 OH2  OT    -0.834000       15.9994           0
    5126 WTU1 8715 TIP3 H1   HT     0.417000        1.0079           0
    5127 WTU1 8715 TIP3 H2   HT     0.417000        1.0079           0
    5128 WTU1 8717 TIP3 OH2  OT    -0.834000       15.9994           0
    5129 WTU1 8717 TIP3 H1   HT     0.417000        1.0079           0
    5130 WTU1 8717 TIP3 H2   HT     0.417000        1.0079           0
    5131 WTU1 8718 TIP3 OH2  OT    -0.834000       15.9994           0
    5132 WTU1 8718 TIP3 H1   HT     0.417000        1.0079           0
    5133 WTU1 8718 TIP3 H2   HT     0.417000        1.0079           0
    5134 WTU1 8722 TIP3 OH2  OT    -0.834000       15.9994           0
    5135 WTU1 8722 TIP3 H1   HT     0.417000        1.0079           0
    5136 WTU1 8722 TIP3 H2   HT     0.417000        1.0079           0
    5137 WTU1 8737 TIP3 OH2  OT    -0.834000       15.9994           0
    5138 WTU1 8737 TIP3 H1   HT     0.417000        1.0079           0
    5139 WTU1 8737 TIP3 H2   HT     0.417000        1.0079           0
    5140 WTU1 8738 TIP3 OH2  OT    -0.834000       15.9994           0
    5141 WTU1 8738 TIP3 H1   HT     0.417000        1.0079           0
    5142 WTU1 8738 TIP3 H2   HT     0.417000        1.0079           0
    5143 WTU1 8741 TIP3 OH2  OT    -0.834000       15.9994           0
    5144 WTU1 8741 TIP3 H1   HT     0.417000        1.0079           0
    5145 WTU1 8741 TIP3 H2   HT     0.417000        1.0079           0
    5146 WTU1 8743 TIP3 OH2  OT    -0.834000       15.9994           0
    5147 WTU1 8743 TIP3 H1   HT     0.417000        1.0079           0
    5148 WTU1 8743 TIP3 H2   HT     0.417000        1.0079           0
    5149 WTU1 8746 TIP3 OH2  OT    -0.834000       15.9994           0
    5150 WTU1 8746 TIP3 H1   HT     0.417000        1.0079           0
    5151 WTU1 8746 TIP3 H2   HT     0.417000        1.0079           0
    5152 WTU1 8754 TIP3 OH2  OT    -0.834000       15.9994           0
    5153 WTU1 8754 TIP3 H1   HT     0.417000        1.0079           0
    5154 WTU1 8754 TIP3 H2   HT     0.417000        1.0079           0
    5155 WTU1 8757 TIP3 OH2  OT    -0.834000       15.9994           0
    5156 WTU1 8757 TIP3 H1   HT     0.417000        1.0079           0
    5157 WTU1 8757 TIP3 H2   HT     0.417000        1.0079           0
    5158 WTU1 8760 TIP3 OH2  OT    -0.834000       15.9994           0
    5159 WTU1 8760 TIP3 H1   HT     0.417000        1.0079           0
    5160 WTU1 8760 TIP3 H2   HT     0.417000        1.0079           0
    5161 WTU1 8761 TIP3 OH2  OT    -0.834000       15.9994           0
    5162 WTU1 8761 TIP3 H1   HT     0.417000        1.0079           0
    5163 WTU1 8761 TIP3 H2   HT     0.417000        1.0079           0
    5164 WTU1 8763 TIP3 OH2  OT    -0.834000       15.9994           0
    5165 WTU1 8763 TIP3 H1   HT     0.417000        1.0079           0
    5166 WTU1 8763 TIP3 H2   HT     0.417000        1.0079           0
    5167 WTU1 8764 TIP3 OH2  OT    -0.834000       15.9994           0
    5168 WTU1 8764 TIP3 H1   HT     0.417000        1.0079           0
    5169 WTU1 8764 TIP3 H2   HT     0.417000        1.0079           0
    5170 WTU1 8778 TIP3 OH2  OT    -0.834000       15.9994           0
    5171 WTU1 8778 TIP3 H1   HT     0.417000        1.0079           0
    5172 WTU1 8778 TIP3 H2   HT     0.417000        1.0079           0
    5173 WTU1 8783 TIP3 OH2  OT    -0.834000       15.9994           0
    5174 WTU1 8783 TIP3 H1   HT     0.417000        1.0079           0
    5175 WTU1 8783 TIP3 H2   HT     0.417000        1.0079           0
    5176 WTU1 8785 TIP3 OH2  OT    -0.834000       15.9994           0
    5177 WTU1 8785 TIP3 H1   HT     0.417000        1.0079           0
    5178 WTU1 8785 TIP3 H2   HT     0.417000        1.0079           0
    5179 WTU1 8797 TIP3 OH2  OT    -0.834000       15.9994           0
    5180 WTU1 8797 TIP3 H1   HT     0.417000        1.0079           0
    5181 WTU1 8797 TIP3 H2   HT     0.417000        1.0079           0
    5182 WTU1 8800 TIP3 OH2  OT    -0.834000       15.9994           0
    5183 WTU1 8800 TIP3 H1   HT     0.417000        1.0079           0
    5184 WTU1 8800 TIP3 H2   HT     0.417000        1.0079           0
    5185 WTU1 8801 TIP3 OH2  OT    -0.834000       15.9994           0
    5186 WTU1 8801 TIP3 H1   HT     0.417000        1.0079           0
    5187 WTU1 8801 TIP3 H2   HT     0.417000        1.0079           0
    5188 WTU1 8802 TIP3 OH2  OT    -0.834000       15.9994           0
    5189 WTU1 8802 TIP3 H1   HT     0.417000        1.0079           0
    5190 WTU1 8802 TIP3 H2   HT     0.417000        1.0079           0
    5191 WTU1 8803 TIP3 OH2  OT    -0.834000       15.9994           0
    5192 WTU1 8803 TIP3 H1   HT     0.417000        1.0079           0
    5193 WTU1 8803 TIP3 H2   HT     0.417000        1.0079           0
    5194 WTU1 8804 TIP3 OH2  OT    -0.834000       15.9994           0
    5195 WTU1 8804 TIP3 H1   HT     0.417000        1.0079           0
    5196 WTU1 8804 TIP3 H2   HT     0.417000        1.0079           0
    5197 WTU1 8819 TIP3 OH2  OT    -0.834000       15.9994           0
    5198 WTU1 8819 TIP3 H1   HT     0.417000        1.0079           0
    5199 WTU1 8819 TIP3 H2   HT     0.417000        1.0079           0
    5200 WTU1 8820 TIP3 OH2  OT    -0.834000       15.9994           0
    5201 WTU1 8820 TIP3 H1   HT     0.417000        1.0079           0
    5202 WTU1 8820 TIP3 H2   HT     0.417000        1.0079           0
    5203 WTU1 8822 TIP3 OH2  OT    -0.834000       15.9994           0
    5204 WTU1 8822 TIP3 H1   HT     0.417000        1.0079           0
    5205 WTU1 8822 TIP3 H2   HT     0.417000        1.0079           0
    5206 WTU1 8823 TIP3 OH2  OT    -0.834000       15.9994           0
    5207 WTU1 8823 TIP3 H1   HT     0.417000        1.0079           0
    5208 WTU1 8823 TIP3 H2   HT     0.417000        1.0079           0
    5209 WTU1 8827 TIP3 OH2  OT    -0.834000       15.9994           0
    5210 WTU1 8827 TIP3 H1   HT     0.417000        1.0079           0
    5211 WTU1 8827 TIP3 H2   HT     0.417000        1.0079           0
    5212 WTU1 8829 TIP3 OH2  OT    -0.834000       15.9994           0
    5213 WTU1 8829 TIP3 H1   HT     0.417000        1.0079           0
    5214 WTU1 8829 TIP3 H2   HT     0.417000        1.0079           0
    5215 WTU1 8842 TIP3 OH2  OT    -0.834000       15.9994           0
    5216 WTU1 8842 TIP3 H1   HT     0.417000        1.0079           0
    5217 WTU1 8842 TIP3 H2   HT     0.417000        1.0079           0
    5218 WTU1 8843 TIP3 OH2  OT    -0.834000       15.9994           0
    5219 WTU1 8843 TIP3 H1   HT     0.417000        1.0079           0
    5220 WTU1 8843 TIP3 H2   HT     0.417000        1.0079           0
    5221 WTU1 8844 TIP3 OH2  OT    -0.834000       15.9994           0
    5222 WTU1 8844 TIP3 H1   HT     0.417000        1.0079           0
    5223 WTU1 8844 TIP3 H2   HT     0.417000        1.0079           0
    5224 WTU1 8845 TIP3 OH2  OT    -0.834000       15.9994           0
    5225 WTU1 8845 TIP3 H1   HT     0.417000        1.0079           0
    5226 WTU1 8845 TIP3 H2   HT     0.417000        1.0079           0
    5227 WTU1 8846 TIP3 OH2  OT    -0.834000       15.9994           0
    5228 WTU1 8846 TIP3 H1   HT     0.417000        1.0079           0
    5229 WTU1 8846 TIP3 H2   HT     0.417000        1.0079           0
    5230 WTU1 8849 TIP3 OH2  OT    -0.834000       15.9994           0
    5231 WTU1 8849 TIP3 H1   HT     0.417000        1.0079           0
    5232 WTU1 8849 TIP3 H2   HT     0.417000        1.0079           0
    5233 WTU1 8863 TIP3 OH2  OT    -0.834000       15.9994           0
    5234 WTU1 8863 TIP3 H1   HT     0.417000        1.0079           0
    5235 WTU1 8863 TIP3 H2   HT     0.417000        1.0079           0
    5236 WTU1 8865 TIP3 OH2  OT    -0.834000       15.9994           0
    5237 WTU1 8865 TIP3 H1   HT     0.417000        1.0079           0
    5238 WTU1 8865 TIP3 H2   HT     0.417000        1.0079           0
    5239 WTU1 8867 TIP3 OH2  OT    -0.834000       15.9994           0
    5240 WTU1 8867 TIP3 H1   HT     0.417000        1.0079           0
    5241 WTU1 8867 TIP3 H2   HT     0.417000        1.0079           0
    5242 WTU1 8868 TIP3 OH2  OT    -0.834000       15.9994           0
    5243 WTU1 8868 TIP3 H1   HT     0.417000        1.0079           0
    5244 WTU1 8868 TIP3 H2   HT     0.417000        1.0079           0
    5245 WTU1 8869 TIP3 OH2  OT    -0.834000       15.9994           0
    5246 WTU1 8869 TIP3 H1   HT     0.417000        1.0079           0
    5247 WTU1 8869 TIP3 H2   HT     0.417000        1.0079           0
    5248 WTU1 8883 TIP3 OH2  OT    -0.834000       15.9994           0
    5249 WTU1 8883 TIP3 H1   HT     0.417000        1.0079           0
    5250 WTU1 8883 TIP3 H2   HT     0.417000        1.0079           0
    5251 WTU1 8884 TIP3 OH2  OT    -0.834000       15.9994           0
    5252 WTU1 8884 TIP3 H1   HT     0.417000        1.0079           0
    5253 WTU1 8884 TIP3 H2   HT     0.417000        1.0079           0
    5254 WTU1 8885 TIP3 OH2  OT    -0.834000       15.9994           0
    5255 WTU1 8885 TIP3 H1   HT     0.417000        1.0079           0
    5256 WTU1 8885 TIP3 H2   HT     0.417000        1.0079           0
    5257 WTU1 8886 TIP3 OH2  OT    -0.834000       15.9994           0
    5258 WTU1 8886 TIP3 H1   HT     0.417000        1.0079           0
    5259 WTU1 8886 TIP3 H2   HT     0.417000        1.0079           0
    5260 WTU1 8889 TIP3 OH2  OT    -0.834000       15.9994           0
    5261 WTU1 8889 TIP3 H1   HT     0.417000        1.0079           0
    5262 WTU1 8889 TIP3 H2   HT     0.417000        1.0079           0
    5263 WTU1 8891 TIP3 OH2  OT    -0.834000       15.9994           0
    5264 WTU1 8891 TIP3 H1   HT     0.417000        1.0079           0
    5265 WTU1 8891 TIP3 H2   HT     0.417000        1.0079           0
    5266 WTU1 8903 TIP3 OH2  OT    -0.834000       15.9994           0
    5267 WTU1 8903 TIP3 H1   HT     0.417000        1.0079           0
    5268 WTU1 8903 TIP3 H2   HT     0.417000        1.0079           0
    5269 WTU1 8905 TIP3 OH2  OT    -0.834000       15.9994           0
    5270 WTU1 8905 TIP3 H1   HT     0.417000        1.0079           0
    5271 WTU1 8905 TIP3 H2   HT     0.417000        1.0079           0
    5272 WTU1 8906 TIP3 OH2  OT    -0.834000       15.9994           0
    5273 WTU1 8906 TIP3 H1   HT     0.417000        1.0079           0
    5274 WTU1 8906 TIP3 H2   HT     0.417000        1.0079           0
    5275 WTU1 8908 TIP3 OH2  OT    -0.834000       15.9994           0
    5276 WTU1 8908 TIP3 H1   HT     0.417000        1.0079           0
    5277 WTU1 8908 TIP3 H2   HT     0.417000        1.0079           0
    5278 WTU1 8911 TIP3 OH2  OT    -0.834000       15.9994           0
    5279 WTU1 8911 TIP3 H1   HT     0.417000        1.0079           0
    5280 WTU1 8911 TIP3 H2   HT     0.417000        1.0079           0
    5281 WTU1 8926 TIP3 OH2  OT    -0.834000       15.9994           0
    5282 WTU1 8926 TIP3 H1   HT     0.417000        1.0079           0
    5283 WTU1 8926 TIP3 H2   HT     0.417000        1.0079           0
    5284 WTU1 8927 TIP3 OH2  OT    -0.834000       15.9994           0
    5285 WTU1 8927 TIP3 H1   HT     0.417000        1.0079           0
    5286 WTU1 8927 TIP3 H2   HT     0.417000        1.0079           0
    5287 WTU1 8935 TIP3 OH2  OT    -0.834000       15.9994           0
    5288 WTU1 8935 TIP3 H1   HT     0.417000        1.0079           0
    5289 WTU1 8935 TIP3 H2   HT     0.417000        1.0079           0
    5290 WTU1 8944 TIP3 OH2  OT    -0.834000       15.9994           0
    5291 WTU1 8944 TIP3 H1   HT     0.417000        1.0079           0
    5292 WTU1 8944 TIP3 H2   HT     0.417000        1.0079           0
    5293 WTU1 8949 TIP3 OH2  OT    -0.834000       15.9994           0
    5294 WTU1 8949 TIP3 H1   HT     0.417000        1.0079           0
    5295 WTU1 8949 TIP3 H2   HT     0.417000        1.0079           0
    5296 WTU1 8950 TIP3 OH2  OT    -0.834000       15.9994           0
    5297 WTU1 8950 TIP3 H1   HT     0.417000        1.0079           0
    5298 WTU1 8950 TIP3 H2   HT     0.417000        1.0079           0
    5299 WTU1 8951 TIP3 OH2  OT    -0.834000       15.9994           0
    5300 WTU1 8951 TIP3 H1   HT     0.417000        1.0079           0
    5301 WTU1 8951 TIP3 H2   HT     0.417000        1.0079           0
    5302 WTU1 8954 TIP3 OH2  OT    -0.834000       15.9994           0
    5303 WTU1 8954 TIP3 H1   HT     0.417000        1.0079           0
    5304 WTU1 8954 TIP3 H2   HT     0.417000        1.0079           0
    5305 WTU1 8967 TIP3 OH2  OT    -0.834000       15.9994           0
    5306 WTU1 8967 TIP3 H1   HT     0.417000        1.0079           0
    5307 WTU1 8967 TIP3 H2   HT     0.417000        1.0079           0
    5308 WTU1 8969 TIP3 OH2  OT    -0.834000       15.9994           0
    5309 WTU1 8969 TIP3 H1   HT     0.417000        1.0079           0
    5310 WTU1 8969 TIP3 H2   HT     0.417000        1.0079           0
    5311 WTU1 8970 TIP3 OH2  OT    -0.834000       15.9994           0
    5312 WTU1 8970 TIP3 H1   HT     0.417000        1.0079           0
    5313 WTU1 8970 TIP3 H2   HT     0.417000        1.0079           0
    5314 WTU1 8973 TIP3 OH2  OT    -0.834000       15.9994           0
    5315 WTU1 8973 TIP3 H1   HT     0.417000        1.0079           0
    5316 WTU1 8973 TIP3 H2   HT     0.417000        1.0079           0
    5317 WTU1 8976 TIP3 OH2  OT    -0.834000       15.9994           0
    5318 WTU1 8976 TIP3 H1   HT     0.417000        1.0079           0
    5319 WTU1 8976 TIP3 H2   HT     0.417000        1.0079           0
    5320 WTU1 8977 TIP3 OH2  OT    -0.834000       15.9994           0
    5321 WTU1 8977 TIP3 H1   HT     0.417000        1.0079           0
    5322 WTU1 8977 TIP3 H2   HT     0.417000        1.0079           0
    5323 WTU1 8988 TIP3 OH2  OT    -0.834000       15.9994           0
    5324 WTU1 8988 TIP3 H1   HT     0.417000        1.0079           0
    5325 WTU1 8988 TIP3 H2   HT     0.417000        1.0079           0
    5326 WTU1 8991 TIP3 OH2  OT    -0.834000       15.9994           0
    5327 WTU1 8991 TIP3 H1   HT     0.417000        1.0079           0
    5328 WTU1 8991 TIP3 H2   HT     0.417000        1.0079           0
    5329 WTU1 8996 TIP3 OH2  OT    -0.834000       15.9994           0
    5330 WTU1 8996 TIP3 H1   HT     0.417000        1.0079           0
    5331 WTU1 8996 TIP3 H2   HT     0.417000        1.0079           0
    5332 WTU1 9008 TIP3 OH2  OT    -0.834000       15.9994           0
    5333 WTU1 9008 TIP3 H1   HT     0.417000        1.0079           0
    5334 WTU1 9008 TIP3 H2   HT     0.417000        1.0079           0
    5335 WTU1 9009 TIP3 OH2  OT    -0.834000       15.9994           0
    5336 WTU1 9009 TIP3 H1   HT     0.417000        1.0079           0
    5337 WTU1 9009 TIP3 H2   HT     0.417000        1.0079           0
    5338 WTU1 9013 TIP3 OH2  OT    -0.834000       15.9994           0
    5339 WTU1 9013 TIP3 H1   HT     0.417000        1.0079           0
    5340 WTU1 9013 TIP3 H2   HT     0.417000        1.0079           0
    5341 WTU1 9015 TIP3 OH2  OT    -0.834000       15.9994           0
    5342 WTU1 9015 TIP3 H1   HT     0.417000        1.0079           0
    5343 WTU1 9015 TIP3 H2   HT     0.417000        1.0079           0
    5344 WTU1 9019 TIP3 OH2  OT    -0.834000       15.9994           0
    5345 WTU1 9019 TIP3 H1   HT     0.417000        1.0079           0
    5346 WTU1 9019 TIP3 H2   HT     0.417000        1.0079           0
    5347 WTU1 9034 TIP3 OH2  OT    -0.834000       15.9994           0
    5348 WTU1 9034 TIP3 H1   HT     0.417000        1.0079           0
    5349 WTU1 9034 TIP3 H2   HT     0.417000        1.0079           0
    5350 WTU1 9035 TIP3 OH2  OT    -0.834000       15.9994           0
    5351 WTU1 9035 TIP3 H1   HT     0.417000        1.0079           0
    5352 WTU1 9035 TIP3 H2   HT     0.417000        1.0079           0
    5353 WTU1 9039 TIP3 OH2  OT    -0.834000       15.9994           0
    5354 WTU1 9039 TIP3 H1   HT     0.417000        1.0079           0
    5355 WTU1 9039 TIP3 H2   HT     0.417000        1.0079           0
    5356 WTU1 9051 TIP3 OH2  OT    -0.834000       15.9994           0
    5357 WTU1 9051 TIP3 H1   HT     0.417000        1.0079           0
    5358 WTU1 9051 TIP3 H2   HT     0.417000        1.0079           0
    5359 WTU1 9052 TIP3 OH2  OT    -0.834000       15.9994           0
    5360 WTU1 9052 TIP3 H1   HT     0.417000        1.0079           0
    5361 WTU1 9052 TIP3 H2   HT     0.417000        1.0079           0
    5362 WTU1 9054 TIP3 OH2  OT    -0.834000       15.9994           0
    5363 WTU1 9054 TIP3 H1   HT     0.417000        1.0079           0
    5364 WTU1 9054 TIP3 H2   HT     0.417000        1.0079           0
    5365 WTU1 9055 TIP3 OH2  OT    -0.834000       15.9994           0
    5366 WTU1 9055 TIP3 H1   HT     0.417000        1.0079           0
    5367 WTU1 9055 TIP3 H2   HT     0.417000        1.0079           0
    5368 WTU1 9072 TIP3 OH2  OT    -0.834000       15.9994           0
    5369 WTU1 9072 TIP3 H1   HT     0.417000        1.0079           0
    5370 WTU1 9072 TIP3 H2   HT     0.417000        1.0079           0
    5371 WTU1 9073 TIP3 OH2  OT    -0.834000       15.9994           0
    5372 WTU1 9073 TIP3 H1   HT     0.417000        1.0079           0
    5373 WTU1 9073 TIP3 H2   HT     0.417000        1.0079           0
    5374 WTU1 9079 TIP3 OH2  OT    -0.834000       15.9994           0
    5375 WTU1 9079 TIP3 H1   HT     0.417000        1.0079           0
    5376 WTU1 9079 TIP3 H2   HT     0.417000        1.0079           0
    5377 WTU1 9082 TIP3 OH2  OT    -0.834000       15.9994           0
    5378 WTU1 9082 TIP3 H1   HT     0.417000        1.0079           0
    5379 WTU1 9082 TIP3 H2   HT     0.417000        1.0079           0
    5380 WTU1 9092 TIP3 OH2  OT    -0.834000       15.9994           0
    5381 WTU1 9092 TIP3 H1   HT     0.417000        1.0079           0
    5382 WTU1 9092 TIP3 H2   HT     0.417000        1.0079           0
    5383 WTU1 9093 TIP3 OH2  OT    -0.834000       15.9994           0
    5384 WTU1 9093 TIP3 H1   HT     0.417000        1.0079           0
    5385 WTU1 9093 TIP3 H2   HT     0.417000        1.0079           0
    5386 WTU1 9094 TIP3 OH2  OT    -0.834000       15.9994           0
    5387 WTU1 9094 TIP3 H1   HT     0.417000        1.0079           0
    5388 WTU1 9094 TIP3 H2   HT     0.417000        1.0079           0
    5389 WTU1 9096 TIP3 OH2  OT    -0.834000       15.9994           0
    5390 WTU1 9096 TIP3 H1   HT     0.417000        1.0079           0
    5391 WTU1 9096 TIP3 H2   HT     0.417000        1.0079           0
    5392 WTU1 9097 TIP3 OH2  OT    -0.834000       15.9994           0
    5393 WTU1 9097 TIP3 H1   HT     0.417000        1.0079           0
    5394 WTU1 9097 TIP3 H2   HT     0.417000        1.0079           0
    5395 WTU1 9098 TIP3 OH2  OT    -0.834000       15.9994           0
    5396 WTU1 9098 TIP3 H1   HT     0.417000        1.0079           0
    5397 WTU1 9098 TIP3 H2   HT     0.417000        1.0079           0
    5398 WTU1 9099 TIP3 OH2  OT    -0.834000       15.9994           0
    5399 WTU1 9099 TIP3 H1   HT     0.417000        1.0079           0
    5400 WTU1 9099 TIP3 H2   HT     0.417000        1.0079           0
    5401 WTU1 9103 TIP3 OH2  OT    -0.834000       15.9994           0
    5402 WTU1 9103 TIP3 H1   HT     0.417000        1.0079           0
    5403 WTU1 9103 TIP3 H2   HT     0.417000        1.0079           0
    5404 WTU1 9110 TIP3 OH2  OT    -0.834000       15.9994           0
    5405 WTU1 9110 TIP3 H1   HT     0.417000        1.0079           0
    5406 WTU1 9110 TIP3 H2   HT     0.417000        1.0079           0
    5407 WTU1 9116 TIP3 OH2  OT    -0.834000       15.9994           0
    5408 WTU1 9116 TIP3 H1   HT     0.417000        1.0079           0
    5409 WTU1 9116 TIP3 H2   HT     0.417000        1.0079           0
    5410 WTU1 9117 TIP3 OH2  OT    -0.834000       15.9994           0
    5411 WTU1 9117 TIP3 H1   HT     0.417000        1.0079           0
    5412 WTU1 9117 TIP3 H2   HT     0.417000        1.0079           0
    5413 WTU1 9120 TIP3 OH2  OT    -0.834000       15.9994           0
    5414 WTU1 9120 TIP3 H1   HT     0.417000        1.0079           0
    5415 WTU1 9120 TIP3 H2   HT     0.417000        1.0079           0
    5416 WTU1 9122 TIP3 OH2  OT    -0.834000       15.9994           0
    5417 WTU1 9122 TIP3 H1   HT     0.417000        1.0079           0
    5418 WTU1 9122 TIP3 H2   HT     0.417000        1.0079           0
    5419 WTU1 9136 TIP3 OH2  OT    -0.834000       15.9994           0
    5420 WTU1 9136 TIP3 H1   HT     0.417000        1.0079           0
    5421 WTU1 9136 TIP3 H2   HT     0.417000        1.0079           0
    5422 WTU1 9138 TIP3 OH2  OT    -0.834000       15.9994           0
    5423 WTU1 9138 TIP3 H1   HT     0.417000        1.0079           0
    5424 WTU1 9138 TIP3 H2   HT     0.417000        1.0079           0
    5425 WTU1 9139 TIP3 OH2  OT    -0.834000       15.9994           0
    5426 WTU1 9139 TIP3 H1   HT     0.417000        1.0079           0
    5427 WTU1 9139 TIP3 H2   HT     0.417000        1.0079           0
    5428 WTU1 9157 TIP3 OH2  OT    -0.834000       15.9994           0
    5429 WTU1 9157 TIP3 H1   HT     0.417000        1.0079           0
    5430 WTU1 9157 TIP3 H2   HT     0.417000        1.0079           0
    5431 WTU1 9158 TIP3 OH2  OT    -0.834000       15.9994           0
    5432 WTU1 9158 TIP3 H1   HT     0.417000        1.0079           0
    5433 WTU1 9158 TIP3 H2   HT     0.417000        1.0079           0
    5434 WTU1 9159 TIP3 OH2  OT    -0.834000       15.9994           0
    5435 WTU1 9159 TIP3 H1   HT     0.417000        1.0079           0
    5436 WTU1 9159 TIP3 H2   HT     0.417000        1.0079           0
    5437 WTU1 9161 TIP3 OH2  OT    -0.834000       15.9994           0
    5438 WTU1 9161 TIP3 H1   HT     0.417000        1.0079           0
    5439 WTU1 9161 TIP3 H2   HT     0.417000        1.0079           0
    5440 WTU1 9177 TIP3 OH2  OT    -0.834000       15.9994           0
    5441 WTU1 9177 TIP3 H1   HT     0.417000        1.0079           0
    5442 WTU1 9177 TIP3 H2   HT     0.417000        1.0079           0
    5443 WTU1 9180 TIP3 OH2  OT    -0.834000       15.9994           0
    5444 WTU1 9180 TIP3 H1   HT     0.417000        1.0079           0
    5445 WTU1 9180 TIP3 H2   HT     0.417000        1.0079           0
    5446 WTU1 9181 TIP3 OH2  OT    -0.834000       15.9994           0
    5447 WTU1 9181 TIP3 H1   HT     0.417000        1.0079           0
    5448 WTU1 9181 TIP3 H2   HT     0.417000        1.0079           0
    5449 WTU1 9185 TIP3 OH2  OT    -0.834000       15.9994           0
    5450 WTU1 9185 TIP3 H1   HT     0.417000        1.0079           0
    5451 WTU1 9185 TIP3 H2   HT     0.417000        1.0079           0
    5452 WTU1 9198 TIP3 OH2  OT    -0.834000       15.9994           0
    5453 WTU1 9198 TIP3 H1   HT     0.417000        1.0079           0
    5454 WTU1 9198 TIP3 H2   HT     0.417000        1.0079           0
    5455 WTU1 9203 TIP3 OH2  OT    -0.834000       15.9994           0
    5456 WTU1 9203 TIP3 H1   HT     0.417000        1.0079           0
    5457 WTU1 9203 TIP3 H2   HT     0.417000        1.0079           0
    5458 WTU1 9219 TIP3 OH2  OT    -0.834000       15.9994           0
    5459 WTU1 9219 TIP3 H1   HT     0.417000        1.0079           0
    5460 WTU1 9219 TIP3 H2   HT     0.417000        1.0079           0
    5461 WTU1 9222 TIP3 OH2  OT    -0.834000       15.9994           0
    5462 WTU1 9222 TIP3 H1   HT     0.417000        1.0079           0
    5463 WTU1 9222 TIP3 H2   HT     0.417000        1.0079           0
    5464 WTU1 9223 TIP3 OH2  OT    -0.834000       15.9994           0
    5465 WTU1 9223 TIP3 H1   HT     0.417000        1.0079           0
    5466 WTU1 9223 TIP3 H2   HT     0.417000        1.0079           0
    5467 WTU1 9225 TIP3 OH2  OT    -0.834000       15.9994           0
    5468 WTU1 9225 TIP3 H1   HT     0.417000        1.0079           0
    5469 WTU1 9225 TIP3 H2   HT     0.417000        1.0079           0
    5470 WTU1 9226 TIP3 OH2  OT    -0.834000       15.9994           0
    5471 WTU1 9226 TIP3 H1   HT     0.417000        1.0079           0
    5472 WTU1 9226 TIP3 H2   HT     0.417000        1.0079           0
    5473 WTU1 9227 TIP3 OH2  OT    -0.834000       15.9994           0
    5474 WTU1 9227 TIP3 H1   HT     0.417000        1.0079           0
    5475 WTU1 9227 TIP3 H2   HT     0.417000        1.0079           0
    5476 WTU1 9243 TIP3 OH2  OT    -0.834000       15.9994           0
    5477 WTU1 9243 TIP3 H1   HT     0.417000        1.0079           0
    5478 WTU1 9243 TIP3 H2   HT     0.417000        1.0079           0
    5479 WTU1 9244 TIP3 OH2  OT    -0.834000       15.9994           0
    5480 WTU1 9244 TIP3 H1   HT     0.417000        1.0079           0
    5481 WTU1 9244 TIP3 H2   HT     0.417000        1.0079           0
    5482 WTU1 9245 TIP3 OH2  OT    -0.834000       15.9994           0
    5483 WTU1 9245 TIP3 H1   HT     0.417000        1.0079           0
    5484 WTU1 9245 TIP3 H2   HT     0.417000        1.0079           0
    5485 WTU1 9246 TIP3 OH2  OT    -0.834000       15.9994           0
    5486 WTU1 9246 TIP3 H1   HT     0.417000        1.0079           0
    5487 WTU1 9246 TIP3 H2   HT     0.417000        1.0079           0
    5488 WTU1 9247 TIP3 OH2  OT    -0.834000       15.9994           0
    5489 WTU1 9247 TIP3 H1   HT     0.417000        1.0079           0
    5490 WTU1 9247 TIP3 H2   HT     0.417000        1.0079           0
    5491 WTU1 9259 TIP3 OH2  OT    -0.834000       15.9994           0
    5492 WTU1 9259 TIP3 H1   HT     0.417000        1.0079           0
    5493 WTU1 9259 TIP3 H2   HT     0.417000        1.0079           0
    5494 WTU2 11   TIP3 OH2  OT    -0.834000       15.9994           0
    5495 WTU2 11   TIP3 H1   HT     0.417000        1.0079           0
    5496 WTU2 11   TIP3 H2   HT     0.417000        1.0079           0
    5497 WTU2 22   TIP3 OH2  OT    -0.834000       15.9994           0
    5498 WTU2 22   TIP3 H1   HT     0.417000        1.0079           0
    5499 WTU2 22   TIP3 H2   HT     0.417000        1.0079           0
    5500 WTU2 69   TIP3 OH2  OT    -0.834000       15.9994           0
    5501 WTU2 69   TIP3 H1   HT     0.417000        1.0079           0
    5502 WTU2 69   TIP3 H2   HT     0.417000        1.0079           0
    5503 WTU2 107  TIP3 OH2  OT    -0.834000       15.9994           0
    5504 WTU2 107  TIP3 H1   HT     0.417000        1.0079           0
    5505 WTU2 107  TIP3 H2   HT     0.417000        1.0079           0
    5506 WTU2 125  TIP3 OH2  OT    -0.834000       15.9994           0
    5507 WTU2 125  TIP3 H1   HT     0.417000        1.0079           0
    5508 WTU2 125  TIP3 H2   HT     0.417000        1.0079           0
    5509 WTU2 130  TIP3 OH2  OT    -0.834000       15.9994           0
    5510 WTU2 130  TIP3 H1   HT     0.417000        1.0079           0
    5511 WTU2 130  TIP3 H2   HT     0.417000        1.0079           0
    5512 WTU2 465  TIP3 OH2  OT    -0.834000       15.9994           0
    5513 WTU2 465  TIP3 H1   HT     0.417000        1.0079           0
    5514 WTU2 465  TIP3 H2   HT     0.417000        1.0079           0
    5515 WTU2 467  TIP3 OH2  OT    -0.834000       15.9994           0
    5516 WTU2 467  TIP3 H1   HT     0.417000        1.0079           0
    5517 WTU2 467  TIP3 H2   HT     0.417000        1.0079           0
    5518 WTU2 484  TIP3 OH2  OT    -0.834000       15.9994           0
    5519 WTU2 484  TIP3 H1   HT     0.417000        1.0079           0
    5520 WTU2 484  TIP3 H2   HT     0.417000        1.0079           0
    5521 WTU2 486  TIP3 OH2  OT    -0.834000       15.9994           0
    5522 WTU2 486  TIP3 H1   HT     0.417000        1.0079           0
    5523 WTU2 486  TIP3 H2   HT     0.417000        1.0079           0
    5524 WTU2 822  TIP3 OH2  OT    -0.834000       15.9994           0
    5525 WTU2 822  TIP3 H1   HT     0.417000        1.0079           0
    5526 WTU2 822  TIP3 H2   HT     0.417000        1.0079           0
    5527 WTU2 906  TIP3 OH2  OT    -0.834000       15.9994           0
    5528 WTU2 906  TIP3 H1   HT     0.417000        1.0079           0
    5529 WTU2 906  TIP3 H2   HT     0.417000        1.0079           0
    5530 WTU2 907  TIP3 OH2  OT    -0.834000       15.9994           0
    5531 WTU2 907  TIP3 H1   HT     0.417000        1.0079           0
    5532 WTU2 907  TIP3 H2   HT     0.417000        1.0079           0
    5533 WTU2 947  TIP3 OH2  OT    -0.834000       15.9994           0
    5534 WTU2 947  TIP3 H1   HT     0.417000        1.0079           0
    5535 WTU2 947  TIP3 H2   HT     0.417000        1.0079           0
    5536 WTU2 948  TIP3 OH2  OT    -0.834000       15.9994           0
    5537 WTU2 948  TIP3 H1   HT     0.417000        1.0079           0
    5538 WTU2 948  TIP3 H2   HT     0.417000        1.0079           0
    5539 WTU2 993  TIP3 OH2  OT    -0.834000       15.9994           0
    5540 WTU2 993  TIP3 H1   HT     0.417000        1.0079           0
    5541 WTU2 993  TIP3 H2   HT     0.417000        1.0079           0
    5542 WTU2 1301 TIP3 OH2  OT    -0.834000       15.9994           0
    5543 WTU2 1301 TIP3 H1   HT     0.417000        1.0079           0
    5544 WTU2 1301 TIP3 H2   HT     0.417000        1.0079           0
    5545 WTU2 1305 TIP3 OH2  OT    -0.834000       15.9994           0
    5546 WTU2 1305 TIP3 H1   HT     0.417000        1.0079           0
    5547 WTU2 1305 TIP3 H2   HT     0.417000        1.0079           0
    5548 WTU2 1322 TIP3 OH2  OT    -0.834000       15.9994           0
    5549 WTU2 1322 TIP3 H1   HT     0.417000        1.0079           0
    5550 WTU2 1322 TIP3 H2   HT     0.417000        1.0079           0
    5551 WTU2 1326 TIP3 OH2  OT    -0.834000       15.9994           0
    5552 WTU2 1326 TIP3 H1   HT     0.417000        1.0079           0
    5553 WTU2 1326 TIP3 H2   HT     0.417000        1.0079           0
    5554 WTU2 1327 TIP3 OH2  OT    -0.834000       15.9994           0
    5555 WTU2 1327 TIP3 H1   HT     0.417000        1.0079           0
    5556 WTU2 1327 TIP3 H2   HT     0.417000        1.0079           0
    5557 WTU2 1328 TIP3 OH2  OT    -0.834000       15.9994           0
    5558 WTU2 1328 TIP3 H1   HT     0.417000        1.0079           0
    5559 WTU2 1328 TIP3 H2   HT     0.417000        1.0079           0
    5560 WTU2 1331 TIP3 OH2  OT    -0.834000       15.9994           0
    5561 WTU2 1331 TIP3 H1   HT     0.417000        1.0079           0
    5562 WTU2 1331 TIP3 H2   HT     0.417000        1.0079           0
    5563 WTU2 1370 TIP3 OH2  OT    -0.834000       15.9994           0
    5564 WTU2 1370 TIP3 H1   HT     0.417000        1.0079           0
    5565 WTU2 1370 TIP3 H2   HT     0.417000        1.0079           0
    5566 WTU2 1428 TIP3 OH2  OT    -0.834000       15.9994           0
    5567 WTU2 1428 TIP3 H1   HT     0.417000        1.0079           0
    5568 WTU2 1428 TIP3 H2   HT     0.417000        1.0079           0
    5569 WTU2 1707 TIP3 OH2  OT    -0.834000       15.9994           0
    5570 WTU2 1707 TIP3 H1   HT     0.417000        1.0079           0
    5571 WTU2 1707 TIP3 H2   HT     0.417000        1.0079           0
    5572 WTU2 1725 TIP3 OH2  OT    -0.834000       15.9994           0
    5573 WTU2 1725 TIP3 H1   HT     0.417000        1.0079           0
    5574 WTU2 1725 TIP3 H2   HT     0.417000        1.0079           0
    5575 WTU2 1744 TIP3 OH2  OT    -0.834000       15.9994           0
    5576 WTU2 1744 TIP3 H1   HT     0.417000        1.0079           0
    5577 WTU2 1744 TIP3 H2   HT     0.417000        1.0079           0
    5578 WTU2 1748 TIP3 OH2  OT    -0.834000       15.9994           0
    5579 WTU2 1748 TIP3 H1   HT     0.417000        1.0079           0
    5580 WTU2 1748 TIP3 H2   HT     0.417000        1.0079           0
    5581 WTU2 1764 TIP3 OH2  OT    -0.834000       15.9994           0
    5582 WTU2 1764 TIP3 H1   HT     0.417000        1.0079           0
    5583 WTU2 1764 TIP3 H2   HT     0.417000        1.0079           0
    5584 WTU2 1771 TIP3 OH2  OT    -0.834000       15.9994           0
    5585 WTU2 1771 TIP3 H1   HT     0.417000        1.0079           0
    5586 WTU2 1771 TIP3 H2   HT     0.417000        1.0079           0
    5587 WTU2 1811 TIP3 OH2  OT    -0.834000       15.9994           0
    5588 WTU2 1811 TIP3 H1   HT     0.417000        1.0079           0
    5589 WTU2 1811 TIP3 H2   HT     0.417000        1.0079           0
    5590 WTU2 1824 TIP3 OH2  OT    -0.834000       15.9994           0
    5591 WTU2 1824 TIP3 H1   HT     0.417000        1.0079           0
    5592 WTU2 1824 TIP3 H2   HT     0.417000        1.0079           0
    5593 WTU2 1831 TIP3 OH2  OT    -0.834000       15.9994           0
    5594 WTU2 1831 TIP3 H1   HT     0.417000        1.0079           0
    5595 WTU2 1831 TIP3 H2   HT     0.417000        1.0079           0
    5596 WTU2 2123 TIP3 OH2  OT    -0.834000       15.9994           0
    5597 WTU2 2123 TIP3 H1   HT     0.417000        1.0079           0
    5598 WTU2 2123 TIP3 H2   HT     0.417000        1.0079           0
    5599 WTU2 2165 TIP3 OH2  OT    -0.834000       15.9994           0
    5600 WTU2 2165 TIP3 H1   HT     0.417000        1.0079           0
    5601 WTU2 2165 TIP3 H2   HT     0.417000        1.0079           0
    5602 WTU2 2167 TIP3 OH2  OT    -0.834000       15.9994           0
    5603 WTU2 2167 TIP3 H1   HT     0.417000        1.0079           0
    5604 WTU2 2167 TIP3 H2   HT     0.417000        1.0079           0
    5605 WTU2 2187 TIP3 OH2  OT    -0.834000       15.9994           0
    5606 WTU2 2187 TIP3 H1   HT     0.417000        1.0079           0
    5607 WTU2 2187 TIP3 H2   HT     0.417000        1.0079           0
    5608 WTU2 2227 TIP3 OH2  OT    -0.834000       15.9994           0
    5609 WTU2 2227 TIP3 H1   HT     0.417000        1.0079           0
    5610 WTU2 2227 TIP3 H2   HT     0.417000        1.0079           0
    5611 WTU2 2244 TIP3 OH2  OT    -0.834000       15.9994           0
    5612 WTU2 2244 TIP3 H1   HT     0.417000        1.0079           0
    5613 WTU2 2244 TIP3 H2   HT     0.417000        1.0079           0
    5614 WTU2 2250 TIP3 OH2  OT    -0.834000       15.9994           0
    5615 WTU2 2250 TIP3 H1   HT     0.417000        1.0079           0
    5616 WTU2 2250 TIP3 H2   HT     0.417000        1.0079           0
    5617 WTU2 2316 TIP3 OH2  OT    -0.834000       15.9994           0
    5618 WTU2 2316 TIP3 H1   HT     0.417000        1.0079           0
    5619 WTU2 2316 TIP3 H2   HT     0.417000        1.0079           0
    5620 WTU2 2606 TIP3 OH2  OT    -0.834000       15.9994           0
    5621 WTU2 2606 TIP3 H1   HT     0.417000        1.0079           0
    5622 WTU2 2606 TIP3 H2   HT     0.417000        1.0079           0
    5623 WTU2 2607 TIP3 OH2  OT    -0.834000       15.9994           0
    5624 WTU2 2607 TIP3 H1   HT     0.417000        1.0079           0
    5625 WTU2 2607 TIP3 H2   HT     0.417000        1.0079           0
    5626 WTU2 2608 TIP3 OH2  OT    -0.834000       15.9994           0
    5627 WTU2 2608 TIP3 H1   HT     0.417000        1.0079           0
    5628 WTU2 2608 TIP3 H2   HT     0.417000        1.0079           0
    5629 WTU2 2610 TIP3 OH2  OT    -0.834000       15.9994           0
    5630 WTU2 2610 TIP3 H1   HT     0.417000        1.0079           0
    5631 WTU2 2610 TIP3 H2   HT     0.417000        1.0079           0
    5632 WTU2 2624 TIP3 OH2  OT    -0.834000       15.9994           0
    5633 WTU2 2624 TIP3 H1   HT     0.417000        1.0079           0
    5634 WTU2 2624 TIP3 H2   HT     0.417000        1.0079           0
    5635 WTU2 2634 TIP3 OH2  OT    -0.834000       15.9994           0
    5636 WTU2 2634 TIP3 H1   HT     0.417000        1.0079           0
    5637 WTU2 2634 TIP3 H2   HT     0.417000        1.0079           0
    5638 WTU2 2650 TIP3 OH2  OT    -0.834000       15.9994           0
    5639 WTU2 2650 TIP3 H1   HT     0.417000        1.0079           0
    5640 WTU2 2650 TIP3 H2   HT     0.417000        1.0079           0
    5641 WTU2 2652 TIP3 OH2  OT    -0.834000       15.9994           0
    5642 WTU2 2652 TIP3 H1   HT     0.417000        1.0079           0
    5643 WTU2 2652 TIP3 H2   HT     0.417000        1.0079           0
    5644 WTU2 2689 TIP3 OH2  OT    -0.834000       15.9994           0
    5645 WTU2 2689 TIP3 H1   HT     0.417000        1.0079           0
    5646 WTU2 2689 TIP3 H2   HT     0.417000        1.0079           0
    5647 WTU2 2690 TIP3 OH2  OT    -0.834000       15.9994           0
    5648 WTU2 2690 TIP3 H1   HT     0.417000        1.0079           0
    5649 WTU2 2690 TIP3 H2   HT     0.417000        1.0079           0
    5650 WTU2 3010 TIP3 OH2  OT    -0.834000       15.9994           0
    5651 WTU2 3010 TIP3 H1   HT     0.417000        1.0079           0
    5652 WTU2 3010 TIP3 H2   HT     0.417000        1.0079           0
    5653 WTU2 3072 TIP3 OH2  OT    -0.834000       15.9994           0
    5654 WTU2 3072 TIP3 H1   HT     0.417000        1.0079           0
    5655 WTU2 3072 TIP3 H2   HT     0.417000        1.0079           0
    5656 WTU2 3073 TIP3 OH2  OT    -0.834000       15.9994           0
    5657 WTU2 3073 TIP3 H1   HT     0.417000        1.0079           0
    5658 WTU2 3073 TIP3 H2   HT     0.417000        1.0079           0
    5659 WTU2 3085 TIP3 OH2  OT    -0.834000       15.9994           0
    5660 WTU2 3085 TIP3 H1   HT     0.417000        1.0079           0
    5661 WTU2 3085 TIP3 H2   HT     0.417000        1.0079           0
    5662 WTU2 3086 TIP3 OH2  OT    -0.834000       15.9994           0
    5663 WTU2 3086 TIP3 H1   HT     0.417000        1.0079           0
    5664 WTU2 3086 TIP3 H2   HT     0.417000        1.0079           0
    5665 WTU2 3108 TIP3 OH2  OT    -0.834000       15.9994           0
    5666 WTU2 3108 TIP3 H1   HT     0.417000        1.0079           0
    5667 WTU2 3108 TIP3 H2   HT     0.417000        1.0079           0
    5668 WTU2 3152 TIP3 OH2  OT    -0.834000       15.9994           0
    5669 WTU2 3152 TIP3 H1   HT     0.417000        1.0079           0
    5670 WTU2 3152 TIP3 H2   HT     0.417000        1.0079           0
    5671 WTU2 3426 TIP3 OH2  OT    -0.834000       15.9994           0
    5672 WTU2 3426 TIP3 H1   HT     0.417000        1.0079           0
    5673 WTU2 3426 TIP3 H2   HT     0.417000        1.0079           0
    5674 WTU2 3447 TIP3 OH2  OT    -0.834000       15.9994           0
    5675 WTU2 3447 TIP3 H1   HT     0.417000        1.0079           0
    5676 WTU2 3447 TIP3 H2   HT     0.417000        1.0079           0
    5677 WTU2 3484 TIP3 OH2  OT    -0.834000       15.9994           0
    5678 WTU2 3484 TIP3 H1   HT     0.417000        1.0079           0
    5679 WTU2 3484 TIP3 H2   HT     0.417000        1.0079           0
    5680 WTU2 3514 TIP3 OH2  OT    -0.834000       15.9994           0
    5681 WTU2 3514 TIP3 H1   HT     0.417000        1.0079           0
    5682 WTU2 3514 TIP3 H2   HT     0.417000        1.0079           0
    5683 WTU2 3533 TIP3 OH2  OT    -0.834000       15.9994           0
    5684 WTU2 3533 TIP3 H1   HT     0.417000        1.0079           0
    5685 WTU2 3533 TIP3 H2   HT     0.417000        1.0079           0
    5686 WTU2 3569 TIP3 OH2  OT    -0.834000       15.9994           0
    5687 WTU2 3569 TIP3 H1   HT     0.417000        1.0079           0
    5688 WTU2 3569 TIP3 H2   HT     0.417000        1.0079           0
    5689 WTU2 3612 TIP3 OH2  OT    -0.834000       15.9994           0
    5690 WTU2 3612 TIP3 H1   HT     0.417000        1.0079           0
    5691 WTU2 3612 TIP3 H2   HT     0.417000        1.0079           0
    5692 WTU2 3619 TIP3 OH2  OT    -0.834000       15.9994           0
    5693 WTU2 3619 TIP3 H1   HT     0.417000        1.0079           0
    5694 WTU2 3619 TIP3 H2   HT     0.417000        1.0079           0
    5695 WTU2 3933 TIP3 OH2  OT    -0.834000       15.9994           0
    5696 WTU2 3933 TIP3 H1   HT     0.417000        1.0079           0
    5697 WTU2 3933 TIP3 H2   HT     0.417000        1.0079           0
    5698 WTU2 3951 TIP3 OH2  OT    -0.834000       15.9994           0
    5699 WTU2 3951 TIP3 H1   HT     0.417000        1.0079           0
    5700 WTU2 3951 TIP3 H2   HT     0.417000        1.0079           0
    5701 WTU2 3986 TIP3 OH2  OT    -0.834000       15.9994           0
    5702 WTU2 3986 TIP3 H1   HT     0.417000        1.0079           0
    5703 WTU2 3986 TIP3 H2   HT     0.417000        1.0079           0
    5704 WTU2 4014 TIP3 OH2  OT    -0.834000       15.9994           0
    5705 WTU2 4014 TIP3 H1   HT     0.417000        1.0079           0
    5706 WTU2 4014 TIP3 H2   HT     0.417000        1.0079           0
    5707 WTU2 4015 TIP3 OH2  OT    -0.834000       15.9994           0
    5708 WTU2 4015 TIP3 H1   HT     0.417000        1.0079           0
    5709 WTU2 4015 TIP3 H2   HT     0.417000        1.0079           0
    5710 WTU2 4017 TIP3 OH2  OT    -0.834000       15.9994           0
    5711 WTU2 4017 TIP3 H1   HT     0.417000        1.0079           0
    5712 WTU2 4017 TIP3 H2   HT     0.417000        1.0079           0
    5713 WTU2 4035 TIP3 OH2  OT    -0.834000       15.9994           0
    5714 WTU2 4035 TIP3 H1   HT     0.417000        1.0079           0
    5715 WTU2 4035 TIP3 H2   HT     0.417000        1.0079           0
    5716 WTU2 4374 TIP3 OH2  OT    -0.834000       15.9994           0
    5717 WTU2 4374 TIP3 H1   HT     0.417000        1.0079           0
    5718 WTU2 4374 TIP3 H2   HT     0.417000        1.0079           0
    5719 WTU2 4414 TIP3 OH2  OT    -0.834000       15.9994           0
    5720 WTU2 4414 TIP3 H1   HT     0.417000        1.0079           0
    5721 WTU2 4414 TIP3 H2   HT     0.417000        1.0079           0
    5722 WTU2 4434 TIP3 OH2  OT    -0.834000       15.9994           0
    5723 WTU2 4434 TIP3 H1   HT     0.417000        1.0079           0
    5724 WTU2 4434 TIP3 H2   HT     0.417000        1.0079           0
    5725 WTU2 4455 TIP3 OH2  OT    -0.834000       15.9994           0
    5726 WTU2 4455 TIP3 H1   HT     0.417000        1.0079           0
    5727 WTU2 4455 TIP3 H2   HT     0.417000        1.0079           0
    5728 WTU2 4477 TIP3 OH2  OT    -0.834000       15.9994           0
    5729 WTU2 4477 TIP3 H1   HT     0.417000        1.0079           0
    5730 WTU2 4477 TIP3 H2   HT     0.417000        1.0079           0
    5731 WTU2 4808 TIP3 OH2  OT    -0.834000       15.9994           0
    5732 WTU2 4808 TIP3 H1   HT     0.417000        1.0079           0
    5733 WTU2 4808 TIP3 H2   HT     0.417000        1.0079           0
    5734 WTU2 4809 TIP3 OH2  OT    -0.834000       15.9994           0
    5735 WTU2 4809 TIP3 H1   HT     0.417000        1.0079           0
    5736 WTU2 4809 TIP3 H2   HT     0.417000        1.0079           0
    5737 WTU2 4834 TIP3 OH2  OT    -0.834000       15.9994           0
    5738 WTU2 4834 TIP3 H1   HT     0.417000        1.0079           0
    5739 WTU2 4834 TIP3 H2   HT     0.417000        1.0079           0
    5740 WTU2 4835 TIP3 OH2  OT    -0.834000       15.9994           0
    5741 WTU2 4835 TIP3 H1   HT     0.417000        1.0079           0
    5742 WTU2 4835 TIP3 H2   HT     0.417000        1.0079           0
    5743 WTU2 4836 TIP3 OH2  OT    -0.834000       15.9994           0
    5744 WTU2 4836 TIP3 H1   HT     0.417000        1.0079           0
    5745 WTU2 4836 TIP3 H2   HT     0.417000        1.0079           0
    5746 WTU2 4853 TIP3 OH2  OT    -0.834000       15.9994           0
    5747 WTU2 4853 TIP3 H1   HT     0.417000        1.0079           0
    5748 WTU2 4853 TIP3 H2   HT     0.417000        1.0079           0
    5749 WTU2 4875 TIP3 OH2  OT    -0.834000       15.9994           0
    5750 WTU2 4875 TIP3 H1   HT     0.417000        1.0079           0
    5751 WTU2 4875 TIP3 H2   HT     0.417000        1.0079           0
    5752 WTU2 4915 TIP3 OH2  OT    -0.834000       15.9994           0
    5753 WTU2 4915 TIP3 H1   HT     0.417000        1.0079           0
    5754 WTU2 4915 TIP3 H2   HT     0.417000        1.0079           0
    5755 WTU2 4937 TIP3 OH2  OT    -0.834000       15.9994           0
    5756 WTU2 4937 TIP3 H1   HT     0.417000        1.0079           0
    5757 WTU2 4937 TIP3 H2   HT     0.417000        1.0079           0
    5758 WTU2 5193 TIP3 OH2  OT    -0.834000       15.9994           0
    5759 WTU2 5193 TIP3 H1   HT     0.417000        1.0079           0
    5760 WTU2 5193 TIP3 H2   HT     0.417000        1.0079           0
    5761 WTU2 5319 TIP3 OH2  OT    -0.834000       15.9994           0
    5762 WTU2 5319 TIP3 H1   HT     0.417000        1.0079           0
    5763 WTU2 5319 TIP3 H2   HT     0.417000        1.0079           0
    5764 WTU2 5332 TIP3 OH2  OT    -0.834000       15.9994           0
    5765 WTU2 5332 TIP3 H1   HT     0.417000        1.0079           0
    5766 WTU2 5332 TIP3 H2   HT     0.417000        1.0079           0
    5767 WTU2 5355 TIP3 OH2  OT    -0.834000       15.9994           0
    5768 WTU2 5355 TIP3 H1   HT     0.417000        1.0079           0
    5769 WTU2 5355 TIP3 H2   HT     0.417000        1.0079           0
    5770 WTU2 5356 TIP3 OH2  OT    -0.834000       15.9994           0
    5771 WTU2 5356 TIP3 H1   HT     0.417000        1.0079           0
    5772 WTU2 5356 TIP3 H2   HT     0.417000        1.0079           0
    5773 WTU2 5363 TIP3 OH2  OT    -0.834000       15.9994           0
    5774 WTU2 5363 TIP3 H1   HT     0.417000        1.0079           0
    5775 WTU2 5363 TIP3 H2   HT     0.417000        1.0079           0
    5776 WTU2 5650 TIP3 OH2  OT    -0.834000       15.9994           0
    5777 WTU2 5650 TIP3 H1   HT     0.417000        1.0079           0
    5778 WTU2 5650 TIP3 H2   HT     0.417000        1.0079           0
    5779 WTU2 5654 TIP3 OH2  OT    -0.834000       15.9994           0
    5780 WTU2 5654 TIP3 H1   HT     0.417000        1.0079           0
    5781 WTU2 5654 TIP3 H2   HT     0.417000        1.0079           0
    5782 WTU2 5669 TIP3 OH2  OT    -0.834000       15.9994           0
    5783 WTU2 5669 TIP3 H1   HT     0.417000        1.0079           0
    5784 WTU2 5669 TIP3 H2   HT     0.417000        1.0079           0
    5785 WTU2 5676 TIP3 OH2  OT    -0.834000       15.9994           0
    5786 WTU2 5676 TIP3 H1   HT     0.417000        1.0079           0
    5787 WTU2 5676 TIP3 H2   HT     0.417000        1.0079           0
    5788 WTU2 5690 TIP3 OH2  OT    -0.834000       15.9994           0
    5789 WTU2 5690 TIP3 H1   HT     0.417000        1.0079           0
    5790 WTU2 5690 TIP3 H2   HT     0.417000        1.0079           0
    5791 WTU2 5710 TIP3 OH2  OT    -0.834000       15.9994           0
    5792 WTU2 5710 TIP3 H1   HT     0.417000        1.0079           0
    5793 WTU2 5710 TIP3 H2   HT     0.417000        1.0079           0
    5794 WTU2 5734 TIP3 OH2  OT    -0.834000       15.9994           0
    5795 WTU2 5734 TIP3 H1   HT     0.417000        1.0079           0
    5796 WTU2 5734 TIP3 H2   HT     0.417000        1.0079           0
    5797 WTU2 5756 TIP3 OH2  OT    -0.834000       15.9994           0
    5798 WTU2 5756 TIP3 H1   HT     0.417000        1.0079           0
    5799 WTU2 5756 TIP3 H2   HT     0.417000        1.0079           0
    5800 WTU2 5758 TIP3 OH2  OT    -0.834000       15.9994           0
    5801 WTU2 5758 TIP3 H1   HT     0.417000        1.0079           0
    5802 WTU2 5758 TIP3 H2   HT     0.417000        1.0079           0
    5803 WTU2 5841 TIP3 OH2  OT    -0.834000       15.9994           0
    5804 WTU2 5841 TIP3 H1   HT     0.417000        1.0079           0
    5805 WTU2 5841 TIP3 H2   HT     0.417000        1.0079           0
    5806 WTU2 5884 TIP3 OH2  OT    -0.834000       15.9994           0
    5807 WTU2 5884 TIP3 H1   HT     0.417000        1.0079           0
    5808 WTU2 5884 TIP3 H2   HT     0.417000        1.0079           0
    5809 WTU2 6091 TIP3 OH2  OT    -0.834000       15.9994           0
    5810 WTU2 6091 TIP3 H1   HT     0.417000        1.0079           0
    5811 WTU2 6091 TIP3 H2   HT     0.417000        1.0079           0
    5812 WTU2 6110 TIP3 OH2  OT    -0.834000       15.9994           0
    5813 WTU2 6110 TIP3 H1   HT     0.417000        1.0079           0
    5814 WTU2 6110 TIP3 H2   HT     0.417000        1.0079           0
    5815 WTU2 6138 TIP3 OH2  OT    -0.834000       15.9994           0
    5816 WTU2 6138 TIP3 H1   HT     0.417000        1.0079           0
    5817 WTU2 6138 TIP3 H2   HT     0.417000        1.0079           0
    5818 WTU2 6158 TIP3 OH2  OT    -0.834000       15.9994           0
    5819 WTU2 6158 TIP3 H1   HT     0.417000        1.0079           0
    5820 WTU2 6158 TIP3 H2   HT     0.417000        1.0079           0
    5821 WTU2 6174 TIP3 OH2  OT    -0.834000       15.9994           0
    5822 WTU2 6174 TIP3 H1   HT     0.417000        1.0079           0
    5823 WTU2 6174 TIP3 H2   HT     0.417000        1.0079           0
    5824 WTU2 6177 TIP3 OH2  OT    -0.834000       15.9994           0
    5825 WTU2 6177 TIP3 H1   HT     0.417000        1.0079           0
    5826 WTU2 6177 TIP3 H2   HT     0.417000        1.0079           0
    5827 WTU2 6179 TIP3 OH2  OT    -0.834000       15.9994           0
    5828 WTU2 6179 TIP3 H1   HT     0.417000        1.0079           0
    5829 WTU2 6179 TIP3 H2   HT     0.417000        1.0079           0
    5830 WTU2 6183 TIP3 OH2  OT    -0.834000       15.9994           0
    5831 WTU2 6183 TIP3 H1   HT     0.417000        1.0079           0
    5832 WTU2 6183 TIP3 H2   HT     0.417000        1.0079           0
    5833 WTU2 6200 TIP3 OH2  OT    -0.834000       15.9994           0
    5834 WTU2 6200 TIP3 H1   HT     0.417000        1.0079           0
    5835 WTU2 6200 TIP3 H2   HT     0.417000        1.0079           0
    5836 WTU2 6215 TIP3 OH2  OT    -0.834000       15.9994           0
    5837 WTU2 6215 TIP3 H1   HT     0.417000        1.0079           0
    5838 WTU2 6215 TIP3 H2   HT     0.417000        1.0079           0
    5839 WTU2 6216 TIP3 OH2  OT    -0.834000       15.9994           0
    5840 WTU2 6216 TIP3 H1   HT     0.417000        1.0079           0
    5841 WTU2 6216 TIP3 H2   HT     0.417000        1.0079           0
    5842 WTU2 6219 TIP3 OH2  OT    -0.834000       15.9994           0
    5843 WTU2 6219 TIP3 H1   HT     0.417000        1.0079           0
    5844 WTU2 6219 TIP3 H2   HT     0.417000        1.0079           0
    5845 WTU2 6240 TIP3 OH2  OT    -0.834000       15.9994           0
    5846 WTU2 6240 TIP3 H1   HT     0.417000        1.0079           0
    5847 WTU2 6240 TIP3 H2   HT     0.417000        1.0079           0
    5848 WTU2 6311 TIP3 OH2  OT    -0.834000       15.9994           0
    5849 WTU2 6311 TIP3 H1   HT     0.417000        1.0079           0
    5850 WTU2 6311 TIP3 H2   HT     0.417000        1.0079           0
    5851 WTU2 6555 TIP3 OH2  OT    -0.834000       15.9994           0
    5852 WTU2 6555 TIP3 H1   HT     0.417000        1.0079           0
    5853 WTU2 6555 TIP3 H2   HT     0.417000        1.0079           0
    5854 WTU2 6597 TIP3 OH2  OT    -0.834000       15.9994           0
    5855 WTU2 6597 TIP3 H1   HT     0.417000        1.0079           0
    5856 WTU2 6597 TIP3 H2   HT     0.417000        1.0079           0
    5857 WTU2 6615 TIP3 OH2  OT    -0.834000       15.9994           0
    5858 WTU2 6615 TIP3 H1   HT     0.417000        1.0079           0
    5859 WTU2 6615 TIP3 H2   HT     0.417000        1.0079           0
    5860 WTU2 6621 TIP3 OH2  OT    -0.834000       15.9994           0
    5861 WTU2 6621 TIP3 H1   HT     0.417000        1.0079           0
    5862 WTU2 6621 TIP3 H2   HT     0.417000        1.0079           0
    5863 WTU2 6639 TIP3 OH2  OT    -0.834000       15.9994           0
    5864 WTU2 6639 TIP3 H1   HT     0.417000        1.0079           0
    5865 WTU2 6639 TIP3 H2   HT     0.417000        1.0079           0
    5866 WTU2 6659 TIP3 OH2  OT    -0.834000       15.9994           0
    5867 WTU2 6659 TIP3 H1   HT     0.417000        1.0079           0
    5868 WTU2 6659 TIP3 H2   HT     0.417000        1.0079           0
    5869 WTU2 6700 TIP3 OH2  OT    -0.834000       15.9994           0
    5870 WTU2 6700 TIP3 H1   HT     0.417000        1.0079           0
    5871 WTU2 6700 TIP3 H2   HT     0.417000        1.0079           0
    5872 WTU2 6952 TIP3 OH2  OT    -0.834000       15.9994           0
    5873 WTU2 6952 TIP3 H1   HT     0.417000        1.0079           0
    5874 WTU2 6952 TIP3 H2   HT     0.417000        1.0079           0
    5875 WTU2 6955 TIP3 OH2  OT    -0.834000       15.9994           0
    5876 WTU2 6955 TIP3 H1   HT     0.417000        1.0079           0
    5877 WTU2 6955 TIP3 H2   HT     0.417000        1.0079           0
    5878 WTU2 7017 TIP3 OH2  OT    -0.834000       15.9994           0
    5879 WTU2 7017 TIP3 H1   HT     0.417000        1.0079           0
    5880 WTU2 7017 TIP3 H2   HT     0.417000        1.0079           0
    5881 WTU2 7076 TIP3 OH2  OT    -0.834000       15.9994           0
    5882 WTU2 7076 TIP3 H1   HT     0.417000        1.0079           0
    5883 WTU2 7076 TIP3 H2   HT     0.417000        1.0079           0
    5884 WTU2 7081 TIP3 OH2  OT    -0.834000       15.9994           0
    5885 WTU2 7081 TIP3 H1   HT     0.417000        1.0079           0
    5886 WTU2 7081 TIP3 H2   HT     0.417000        1.0079           0
    5887 WTU2 7122 TIP3 OH2  OT    -0.834000       15.9994           0
    5888 WTU2 7122 TIP3 H1   HT     0.417000        1.0079           0
    5889 WTU2 7122 TIP3 H2   HT     0.417000        1.0079           0
    5890 WTU2 7418 TIP3 OH2  OT    -0.834000       15.9994           0
    5891 WTU2 7418 TIP3 H1   HT     0.417000        1.0079           0
    5892 WTU2 7418 TIP3 H2   HT     0.417000        1.0079           0
    5893 WTU2 7437 TIP3 OH2  OT    -0.834000       15.9994           0
    5894 WTU2 7437 TIP3 H1   HT     0.417000        1.0079           0
    5895 WTU2 7437 TIP3 H2   HT     0.417000        1.0079           0
    5896 WTU2 7439 TIP3 OH2  OT    -0.834000       15.9994           0
    5897 WTU2 7439 TIP3 H1   HT     0.417000        1.0079           0
    5898 WTU2 7439 TIP3 H2   HT     0.417000        1.0079           0
    5899 WTU2 7461 TIP3 OH2  OT    -0.834000       15.9994           0
    5900 WTU2 7461 TIP3 H1   HT     0.417000        1.0079           0
    5901 WTU2 7461 TIP3 H2   HT     0.417000        1.0079           0
    5902 WTU2 7479 TIP3 OH2  OT    -0.834000       15.9994           0
    5903 WTU2 7479 TIP3 H1   HT     0.417000        1.0079           0
    5904 WTU2 7479 TIP3 H2   HT     0.417000        1.0079           0
    5905 WTU2 7498 TIP3 OH2  OT    -0.834000       15.9994           0
    5906 WTU2 7498 TIP3 H1   HT     0.417000        1.0079           0
    5907 WTU2 7498 TIP3 H2   HT     0.417000        1.0079           0
    5908 WTU2 7501 TIP3 OH2  OT    -0.834000       15.9994           0
    5909 WTU2 7501 TIP3 H1   HT     0.417000        1.0079           0
    5910 WTU2 7501 TIP3 H2   HT     0.417000        1.0079           0
    5911 WTU2 7564 TIP3 OH2  OT    -0.834000       15.9994           0
    5912 WTU2 7564 TIP3 H1   HT     0.417000        1.0079           0
    5913 WTU2 7564 TIP3 H2   HT     0.417000        1.0079           0
    5914 WTU2 7602 TIP3 OH2  OT    -0.834000       15.9994           0
    5915 WTU2 7602 TIP3 H1   HT     0.417000        1.0079           0
    5916 WTU2 7602 TIP3 H2   HT     0.417000        1.0079           0
    5917 WTU2 7707 TIP3 OH2  OT    -0.834000       15.9994           0
    5918 WTU2 7707 TIP3 H1   HT     0.417000        1.0079           0
    5919 WTU2 7707 TIP3 H2   HT     0.417000        1.0079           0
    5920 WTU2 7872 TIP3 OH2  OT    -0.834000       15.9994           0
    5921 WTU2 7872 TIP3 H1   HT     0.417000        1.0079           0
    5922 WTU2 7872 TIP3 H2   HT     0.417000        1.0079           0
    5923 WTU2 7895 TIP3 OH2  OT    -0.834000       15.9994           0
    5924 WTU2 7895 TIP3 H1   HT     0.417000        1.0079           0
    5925 WTU2 7895 TIP3 H2   HT     0.417000        1.0079           0
    5926 WTU2 7933 TIP3 OH2  OT    -0.834000       15.9994           0
    5927 WTU2 7933 TIP3 H1   HT     0.417000        1.0079           0
    5928 WTU2 7933 TIP3 H2   HT     0.417000        1.0079           0
    5929 WTU2 7938 TIP3 OH2  OT    -0.834000       15.9994           0
    5930 WTU2 7938 TIP3 H1   HT     0.417000        1.0079           0
    5931 WTU2 7938 TIP3 H2   HT     0.417000        1.0079           0
    5932 WTU2 7941 TIP3 OH2  OT    -0.834000       15.9994           0
    5933 WTU2 7941 TIP3 H1   HT     0.417000        1.0079           0
    5934 WTU2 7941 TIP3 H2   HT     0.417000        1.0079           0
    5935 WTU2 7965 TIP3 OH2  OT    -0.834000       15.9994           0
    5936 WTU2 7965 TIP3 H1   HT     0.417000        1.0079           0
    5937 WTU2 7965 TIP3 H2   HT     0.417000        1.0079           0
    5938 WTU2 8005 TIP3 OH2  OT    -0.834000       15.9994           0
    5939 WTU2 8005 TIP3 H1   HT     0.417000        1.0079           0
    5940 WTU2 8005 TIP3 H2   HT     0.417000        1.0079           0
    5941 WTU2 8022 TIP3 OH2  OT    -0.834000       15.9994           0
    5942 WTU2 8022 TIP3 H1   HT     0.417000        1.0079           0
    5943 WTU2 8022 TIP3 H2   HT     0.417000        1.0079           0
    5944 WTU2 8047 TIP3 OH2  OT    -0.834000       15.9994           0
    5945 WTU2 8047 TIP3 H1   HT     0.417000        1.0079           0
    5946 WTU2 8047 TIP3 H2   HT     0.417000        1.0079           0
    5947 WTU2 8319 TIP3 OH2  OT    -0.834000       15.9994           0
    5948 WTU2 8319 TIP3 H1   HT     0.417000        1.0079           0
    5949 WTU2 8319 TIP3 H2   HT     0.417000        1.0079           0
    5950 WTU2 8377 TIP3 OH2  OT    -0.834000       15.9994           0
    5951 WTU2 8377 TIP3 H1   HT     0.417000        1.0079           0
    5952 WTU2 8377 TIP3 H2   HT     0.417000        1.0079           0
    5953 WTU2 8421 TIP3 OH2  OT    -0.834000       15.9994           0
    5954 WTU2 8421 TIP3 H1   HT     0.417000        1.0079           0
    5955 WTU2 8421 TIP3 H2   HT     0.417000        1.0079           0
    5956 WTU2 8425 TIP3 OH2  OT    -0.834000       15.9994           0
    5957 WTU2 8425 TIP3 H1   HT     0.417000        1.0079           0
    5958 WTU2 8425 TIP3 H2   HT     0.417000        1.0079           0
    5959 WTU2 8446 TIP3 OH2  OT    -0.834000       15.9994           0
    5960 WTU2 8446 TIP3 H1   HT     0.417000        1.0079           0
    5961 WTU2 8446 TIP3 H2   HT     0.417000        1.0079           0
    5962 WTU2 8447 TIP3 OH2  OT    -0.834000       15.9994           0
    5963 WTU2 8447 TIP3 H1   HT     0.417000        1.0079           0
    5964 WTU2 8447 TIP3 H2   HT     0.417000        1.0079           0
    5965 WTU2 8509 TIP3 OH2  OT    -0.834000       15.9994           0
    5966 WTU2 8509 TIP3 H1   HT     0.417000        1.0079           0
    5967 WTU2 8509 TIP3 H2   HT     0.417000        1.0079           0
    5968 WTU2 8802 TIP3 OH2  OT    -0.834000       15.9994           0
    5969 WTU2 8802 TIP3 H1   HT     0.417000        1.0079           0
    5970 WTU2 8802 TIP3 H2   HT     0.417000        1.0079           0
    5971 WTU2 8803 TIP3 OH2  OT    -0.834000       15.9994           0
    5972 WTU2 8803 TIP3 H1   HT     0.417000        1.0079           0
    5973 WTU2 8803 TIP3 H2   HT     0.417000        1.0079           0
    5974 WTU2 8820 TIP3 OH2  OT    -0.834000       15.9994           0
    5975 WTU2 8820 TIP3 H1   HT     0.417000        1.0079           0
    5976 WTU2 8820 TIP3 H2   HT     0.417000        1.0079           0
    5977 WTU2 8823 TIP3 OH2  OT    -0.834000       15.9994           0
    5978 WTU2 8823 TIP3 H1   HT     0.417000        1.0079           0
    5979 WTU2 8823 TIP3 H2   HT     0.417000        1.0079           0
    5980 WTU2 8843 TIP3 OH2  OT    -0.834000       15.9994           0
    5981 WTU2 8843 TIP3 H1   HT     0.417000        1.0079           0
    5982 WTU2 8843 TIP3 H2   HT     0.417000        1.0079           0
    5983 WTU2 8846 TIP3 OH2  OT    -0.834000       15.9994           0
    5984 WTU2 8846 TIP3 H1   HT     0.417000        1.0079           0
    5985 WTU2 8846 TIP3 H2   HT     0.417000        1.0079           0
    5986 WTU2 8849 TIP3 OH2  OT    -0.834000       15.9994           0
    5987 WTU2 8849 TIP3 H1   HT     0.417000        1.0079           0
    5988 WTU2 8849 TIP3 H2   HT     0.417000        1.0079           0
    5989 WTU2 8863 TIP3 OH2  OT    -0.834000       15.9994           0
    5990 WTU2 8863 TIP3 H1   HT     0.417000        1.0079           0
    5991 WTU2 8863 TIP3 H2   HT     0.417000        1.0079           0
    5992 WTU2 8869 TIP3 OH2  OT    -0.834000       15.9994           0
    5993 WTU2 8869 TIP3 H1   HT     0.417000        1.0079           0
    5994 WTU2 8869 TIP3 H2   HT     0.417000        1.0079           0
    5995 WTU2 8903 TIP3 OH2  OT    -0.834000       15.9994           0
    5996 WTU2 8903 TIP3 H1   HT     0.417000        1.0079           0
    5997 WTU2 8903 TIP3 H2   HT     0.417000        1.0079           0
    5998 WTU2 9226 TIP3 OH2  OT    -0.834000       15.9994           0
    5999 WTU2 9226 TIP3 H1   HT     0.417000        1.0079           0
    6000 WTU2 9226 TIP3 H2   HT     0.417000        1.0079           0
    6001 WTU2 9246 TIP3 OH2  OT    -0.834000       15.9994           0
    6002 WTU2 9246 TIP3 H1   HT     0.417000        1.0079           0
    6003 WTU2 9246 TIP3 H2   HT     0.417000        1.0079           0
    6004 WTU3 2    TIP3 OH2  OT    -0.834000       15.9994           0
    6005 WTU3 2    TIP3 H1   HT     0.417000        1.0079           0
    6006 WTU3 2    TIP3 H2   HT     0.417000        1.0079           0
    6007 WTU3 21   TIP3 OH2  OT    -0.834000       15.9994           0
    6008 WTU3 21   TIP3 H1   HT     0.417000        1.0079           0
    6009 WTU3 21   TIP3 H2   HT     0.417000        1.0079           0
    6010 WTU3 40   TIP3 OH2  OT    -0.834000       15.9994           0
    6011 WTU3 40   TIP3 H1   HT     0.417000        1.0079           0
    6012 WTU3 40   TIP3 H2   HT     0.417000        1.0079           0
    6013 WTU3 44   TIP3 OH2  OT    -0.834000       15.9994           0
    6014 WTU3 44   TIP3 H1   HT     0.417000        1.0079           0
    6015 WTU3 44   TIP3 H2   HT     0.417000        1.0079           0
    6016 WTU3 48   TIP3 OH2  OT    -0.834000       15.9994           0
    6017 WTU3 48   TIP3 H1   HT     0.417000        1.0079           0
    6018 WTU3 48   TIP3 H2   HT     0.417000        1.0079           0
    6019 WTU3 65   TIP3 OH2  OT    -0.834000       15.9994           0
    6020 WTU3 65   TIP3 H1   HT     0.417000        1.0079           0
    6021 WTU3 65   TIP3 H2   HT     0.417000        1.0079           0
    6022 WTU3 87   TIP3 OH2  OT    -0.834000       15.9994           0
    6023 WTU3 87   TIP3 H1   HT     0.417000        1.0079           0
    6024 WTU3 87   TIP3 H2   HT     0.417000        1.0079           0
    6025 WTU3 88   TIP3 OH2  OT    -0.834000       15.9994           0
    6026 WTU3 88   TIP3 H1   HT     0.417000        1.0079           0
    6027 WTU3 88   TIP3 H2   HT     0.417000        1.0079           0
    6028 WTU3 108  TIP3 OH2  OT    -0.834000       15.9994           0
    6029 WTU3 108  TIP3 H1   HT     0.417000        1.0079           0
    6030 WTU3 108  TIP3 H2   HT     0.417000        1.0079           0
    6031 WTU3 149  TIP3 OH2  OT    -0.834000       15.9994           0
    6032 WTU3 149  TIP3 H1   HT     0.417000        1.0079           0
    6033 WTU3 149  TIP3 H2   HT     0.417000        1.0079           0
    6034 WTU3 150  TIP3 OH2  OT    -0.834000       15.9994           0
    6035 WTU3 150  TIP3 H1   HT     0.417000        1.0079           0
    6036 WTU3 150  TIP3 H2   HT     0.417000        1.0079           0
    6037 WTU3 167  TIP3 OH2  OT    -0.834000       15.9994           0
    6038 WTU3 167  TIP3 H1   HT     0.417000        1.0079           0
    6039 WTU3 167  TIP3 H2   HT     0.417000        1.0079           0
    6040 WTU3 174  TIP3 OH2  OT    -0.834000       15.9994           0
    6041 WTU3 174  TIP3 H1   HT     0.417000        1.0079           0
    6042 WTU3 174  TIP3 H2   HT     0.417000        1.0079           0
    6043 WTU3 191  TIP3 OH2  OT    -0.834000       15.9994           0
    6044 WTU3 191  TIP3 H1   HT     0.417000        1.0079           0
    6045 WTU3 191  TIP3 H2   HT     0.417000        1.0079           0
    6046 WTU3 195  TIP3 OH2  OT    -0.834000       15.9994           0
    6047 WTU3 195  TIP3 H1   HT     0.417000        1.0079           0
    6048 WTU3 195  TIP3 H2   HT     0.417000        1.0079           0
    6049 WTU3 196  TIP3 OH2  OT    -0.834000       15.9994           0
    6050 WTU3 196  TIP3 H1   HT     0.417000        1.0079           0
    6051 WTU3 196  TIP3 H2   HT     0.417000        1.0079           0
    6052 WTU3 237  TIP3 OH2  OT    -0.834000       15.9994           0
    6053 WTU3 237  TIP3 H1   HT     0.417000        1.0079           0
    6054 WTU3 237  TIP3 H2   HT     0.417000        1.0079           0
    6055 WTU3 338  TIP3 OH2  OT    -0.834000       15.9994           0
    6056 WTU3 338  TIP3 H1   HT     0.417000        1.0079           0
    6057 WTU3 338  TIP3 H2   HT     0.417000        1.0079           0
    6058 WTU3 344  TIP3 OH2  OT    -0.834000       15.9994           0
    6059 WTU3 344  TIP3 H1   HT     0.417000        1.0079           0
    6060 WTU3 344  TIP3 H2   HT     0.417000        1.0079           0
    6061 WTU3 384  TIP3 OH2  OT    -0.834000       15.9994           0
    6062 WTU3 384  TIP3 H1   HT     0.417000        1.0079           0
    6063 WTU3 384  TIP3 H2   HT     0.417000        1.0079           0
    6064 WTU3 401  TIP3 OH2  OT    -0.834000       15.9994           0
    6065 WTU3 401  TIP3 H1   HT     0.417000        1.0079           0
    6066 WTU3 401  TIP3 H2   HT     0.417000        1.0079           0
    6067 WTU3 425  TIP3 OH2  OT    -0.834000       15.9994           0
    6068 WTU3 425  TIP3 H1   HT     0.417000        1.0079           0
    6069 WTU3 425  TIP3 H2   HT     0.417000        1.0079           0
    6070 WTU3 427  TIP3 OH2  OT    -0.834000       15.9994           0
    6071 WTU3 427  TIP3 H1   HT     0.417000        1.0079           0
    6072 WTU3 427  TIP3 H2   HT     0.417000        1.0079           0
    6073 WTU3 446  TIP3 OH2  OT    -0.834000       15.9994           0
    6074 WTU3 446  TIP3 H1   HT     0.417000        1.0079           0
    6075 WTU3 446  TIP3 H2   HT     0.417000        1.0079           0
    6076 WTU3 460  TIP3 OH2  OT    -0.834000       15.9994           0
    6077 WTU3 460  TIP3 H1   HT     0.417000        1.0079           0
    6078 WTU3 460  TIP3 H2   HT     0.417000        1.0079           0
    6079 WTU3 472  TIP3 OH2  OT    -0.834000       15.9994           0
    6080 WTU3 472  TIP3 H1   HT     0.417000        1.0079           0
    6081 WTU3 472  TIP3 H2   HT     0.417000        1.0079           0
    6082 WTU3 485  TIP3 OH2  OT    -0.834000       15.9994           0
    6083 WTU3 485  TIP3 H1   HT     0.417000        1.0079           0
    6084 WTU3 485  TIP3 H2   HT     0.417000        1.0079           0
    6085 WTU3 486  TIP3 OH2  OT    -0.834000       15.9994           0
    6086 WTU3 486  TIP3 H1   HT     0.417000        1.0079           0
    6087 WTU3 486  TIP3 H2   HT     0.417000        1.0079           0
    6088 WTU3 503  TIP3 OH2  OT    -0.834000       15.9994           0
    6089 WTU3 503  TIP3 H1   HT     0.417000        1.0079           0
    6090 WTU3 503  TIP3 H2   HT     0.417000        1.0079           0
    6091 WTU3 543  TIP3 OH2  OT    -0.834000       15.9994           0
    6092 WTU3 543  TIP3 H1   HT     0.417000        1.0079           0
    6093 WTU3 543  TIP3 H2   HT     0.417000        1.0079           0
    6094 WTU3 548  TIP3 OH2  OT    -0.834000       15.9994           0
    6095 WTU3 548  TIP3 H1   HT     0.417000        1.0079           0
    6096 WTU3 548  TIP3 H2   HT     0.417000        1.0079           0
    6097 WTU3 554  TIP3 OH2  OT    -0.834000       15.9994           0
    6098 WTU3 554  TIP3 H1   HT     0.417000        1.0079           0
    6099 WTU3 554  TIP3 H2   HT     0.417000        1.0079           0
    6100 WTU3 562  TIP3 OH2  OT    -0.834000       15.9994           0
    6101 WTU3 562  TIP3 H1   HT     0.417000        1.0079           0
    6102 WTU3 562  TIP3 H2   HT     0.417000        1.0079           0
    6103 WTU3 570  TIP3 OH2  OT    -0.834000       15.9994           0
    6104 WTU3 570  TIP3 H1   HT     0.417000        1.0079           0
    6105 WTU3 570  TIP3 H2   HT     0.417000        1.0079           0
    6106 WTU3 575  TIP3 OH2  OT    -0.834000       15.9994           0
    6107 WTU3 575  TIP3 H1   HT     0.417000        1.0079           0
    6108 WTU3 575  TIP3 H2   HT     0.417000        1.0079           0
    6109 WTU3 584  TIP3 OH2  OT    -0.834000       15.9994           0
    6110 WTU3 584  TIP3 H1   HT     0.417000        1.0079           0
    6111 WTU3 584  TIP3 H2   HT     0.417000        1.0079           0
    6112 WTU3 591  TIP3 OH2  OT    -0.834000       15.9994           0
    6113 WTU3 591  TIP3 H1   HT     0.417000        1.0079           0
    6114 WTU3 591  TIP3 H2   HT     0.417000        1.0079           0
    6115 WTU3 593  TIP3 OH2  OT    -0.834000       15.9994           0
    6116 WTU3 593  TIP3 H1   HT     0.417000        1.0079           0
    6117 WTU3 593  TIP3 H2   HT     0.417000        1.0079           0
    6118 WTU3 594  TIP3 OH2  OT    -0.834000       15.9994           0
    6119 WTU3 594  TIP3 H1   HT     0.417000        1.0079           0
    6120 WTU3 594  TIP3 H2   HT     0.417000        1.0079           0
    6121 WTU3 653  TIP3 OH2  OT    -0.834000       15.9994           0
    6122 WTU3 653  TIP3 H1   HT     0.417000        1.0079           0
    6123 WTU3 653  TIP3 H2   HT     0.417000        1.0079           0
    6124 WTU3 674  TIP3 OH2  OT    -0.834000       15.9994           0
    6125 WTU3 674  TIP3 H1   HT     0.417000        1.0079           0
    6126 WTU3 674  TIP3 H2   HT     0.417000        1.0079           0
    6127 WTU3 715  TIP3 OH2  OT    -0.834000       15.9994           0
    6128 WTU3 715  TIP3 H1   HT     0.417000        1.0079           0
    6129 WTU3 715  TIP3 H2   HT     0.417000        1.0079           0
    6130 WTU3 717  TIP3 OH2  OT    -0.834000       15.9994           0
    6131 WTU3 717  TIP3 H1   HT     0.417000        1.0079           0
    6132 WTU3 717  TIP3 H2   HT     0.417000        1.0079           0
    6133 WTU3 738  TIP3 OH2  OT    -0.834000       15.9994           0
    6134 WTU3 738  TIP3 H1   HT     0.417000        1.0079           0
    6135 WTU3 738  TIP3 H2   HT     0.417000        1.0079           0
    6136 WTU3 746  TIP3 OH2  OT    -0.834000       15.9994           0
    6137 WTU3 746  TIP3 H1   HT     0.417000        1.0079           0
    6138 WTU3 746  TIP3 H2   HT     0.417000        1.0079           0
    6139 WTU3 778  TIP3 OH2  OT    -0.834000       15.9994           0
    6140 WTU3 778  TIP3 H1   HT     0.417000        1.0079           0
    6141 WTU3 778  TIP3 H2   HT     0.417000        1.0079           0
    6142 WTU3 807  TIP3 OH2  OT    -0.834000       15.9994           0
    6143 WTU3 807  TIP3 H1   HT     0.417000        1.0079           0
    6144 WTU3 807  TIP3 H2   HT     0.417000        1.0079           0
    6145 WTU3 822  TIP3 OH2  OT    -0.834000       15.9994           0
    6146 WTU3 822  TIP3 H1   HT     0.417000        1.0079           0
    6147 WTU3 822  TIP3 H2   HT     0.417000        1.0079           0
    6148 WTU3 824  TIP3 OH2  OT    -0.834000       15.9994           0
    6149 WTU3 824  TIP3 H1   HT     0.417000        1.0079           0
    6150 WTU3 824  TIP3 H2   HT     0.417000        1.0079           0
    6151 WTU3 843  TIP3 OH2  OT    -0.834000       15.9994           0
    6152 WTU3 843  TIP3 H1   HT     0.417000        1.0079           0
    6153 WTU3 843  TIP3 H2   HT     0.417000        1.0079           0
    6154 WTU3 846  TIP3 OH2  OT    -0.834000       15.9994           0
    6155 WTU3 846  TIP3 H1   HT     0.417000        1.0079           0
    6156 WTU3 846  TIP3 H2   HT     0.417000        1.0079           0
    6157 WTU3 908  TIP3 OH2  OT    -0.834000       15.9994           0
    6158 WTU3 908  TIP3 H1   HT     0.417000        1.0079           0
    6159 WTU3 908  TIP3 H2   HT     0.417000        1.0079           0
    6160 WTU3 969  TIP3 OH2  OT    -0.834000       15.9994           0
    6161 WTU3 969  TIP3 H1   HT     0.417000        1.0079           0
    6162 WTU3 969  TIP3 H2   HT     0.417000        1.0079           0
    6163 WTU3 1011 TIP3 OH2  OT    -0.834000       15.9994           0
    6164 WTU3 1011 TIP3 H1   HT     0.417000        1.0079           0
    6165 WTU3 1011 TIP3 H2   HT     0.417000        1.0079           0
    6166 WTU3 1018 TIP3 OH2  OT    -0.834000       15.9994           0
    6167 WTU3 1018 TIP3 H1   HT     0.417000        1.0079           0
    6168 WTU3 1018 TIP3 H2   HT     0.417000        1.0079           0
    6169 WTU3 1076 TIP3 OH2  OT    -0.834000       15.9994           0
    6170 WTU3 1076 TIP3 H1   HT     0.417000        1.0079           0
    6171 WTU3 1076 TIP3 H2   HT     0.417000        1.0079           0
    6172 WTU3 1077 TIP3 OH2  OT    -0.834000       15.9994           0
    6173 WTU3 1077 TIP3 H1   HT     0.417000        1.0079           0
    6174 WTU3 1077 TIP3 H2   HT     0.417000        1.0079           0
    6175 WTU3 1098 TIP3 OH2  OT    -0.834000       15.9994           0
    6176 WTU3 1098 TIP3 H1   HT     0.417000        1.0079           0
    6177 WTU3 1098 TIP3 H2   HT     0.417000        1.0079           0
    6178 WTU3 1201 TIP3 OH2  OT    -0.834000       15.9994           0
    6179 WTU3 1201 TIP3 H1   HT     0.417000        1.0079           0
    6180 WTU3 1201 TIP3 H2   HT     0.417000        1.0079           0
    6181 WTU3 1240 TIP3 OH2  OT    -0.834000       15.9994           0
    6182 WTU3 1240 TIP3 H1   HT     0.417000        1.0079           0
    6183 WTU3 1240 TIP3 H2   HT     0.417000        1.0079           0
    6184 WTU3 1258 TIP3 OH2  OT    -0.834000       15.9994           0
    6185 WTU3 1258 TIP3 H1   HT     0.417000        1.0079           0
    6186 WTU3 1258 TIP3 H2   HT     0.417000        1.0079           0
    6187 WTU3 1281 TIP3 OH2  OT    -0.834000       15.9994           0
    6188 WTU3 1281 TIP3 H1   HT     0.417000        1.0079           0
    6189 WTU3 1281 TIP3 H2   HT     0.417000        1.0079           0
    6190 WTU3 1285 TIP3 OH2  OT    -0.834000       15.9994           0
    6191 WTU3 1285 TIP3 H1   HT     0.417000        1.0079           0
    6192 WTU3 1285 TIP3 H2   HT     0.417000        1.0079           0
    6193 WTU3 1301 TIP3 OH2  OT    -0.834000       15.9994           0
    6194 WTU3 1301 TIP3 H1   HT     0.417000        1.0079           0
    6195 WTU3 1301 TIP3 H2   HT     0.417000        1.0079           0
    6196 WTU3 1303 TIP3 OH2  OT    -0.834000       15.9994           0
    6197 WTU3 1303 TIP3 H1   HT     0.417000        1.0079           0
    6198 WTU3 1303 TIP3 H2   HT     0.417000        1.0079           0
    6199 WTU3 1328 TIP3 OH2  OT    -0.834000       15.9994           0
    6200 WTU3 1328 TIP3 H1   HT     0.417000        1.0079           0
    6201 WTU3 1328 TIP3 H2   HT     0.417000        1.0079           0
    6202 WTU3 1345 TIP3 OH2  OT    -0.834000       15.9994           0
    6203 WTU3 1345 TIP3 H1   HT     0.417000        1.0079           0
    6204 WTU3 1345 TIP3 H2   HT     0.417000        1.0079           0
    6205 WTU3 1370 TIP3 OH2  OT    -0.834000       15.9994           0
    6206 WTU3 1370 TIP3 H1   HT     0.417000        1.0079           0
    6207 WTU3 1370 TIP3 H2   HT     0.417000        1.0079           0
    6208 WTU3 1374 TIP3 OH2  OT    -0.834000       15.9994           0
    6209 WTU3 1374 TIP3 H1   HT     0.417000        1.0079           0
    6210 WTU3 1374 TIP3 H2   HT     0.417000        1.0079           0
    6211 WTU3 1387 TIP3 OH2  OT    -0.834000       15.9994           0
    6212 WTU3 1387 TIP3 H1   HT     0.417000        1.0079           0
    6213 WTU3 1387 TIP3 H2   HT     0.417000        1.0079           0
    6214 WTU3 1408 TIP3 OH2  OT    -0.834000       15.9994           0
    6215 WTU3 1408 TIP3 H1   HT     0.417000        1.0079           0
    6216 WTU3 1408 TIP3 H2   HT     0.417000        1.0079           0
    6217 WTU3 1429 TIP3 OH2  OT    -0.834000       15.9994           0
    6218 WTU3 1429 TIP3 H1   HT     0.417000        1.0079           0
    6219 WTU3 1429 TIP3 H2   HT     0.417000        1.0079           0
    6220 WTU3 1451 TIP3 OH2  OT    -0.834000       15.9994           0
    6221 WTU3 1451 TIP3 H1   HT     0.417000        1.0079           0
    6222 WTU3 1451 TIP3 H2   HT     0.417000        1.0079           0
    6223 WTU3 1466 TIP3 OH2  OT    -0.834000       15.9994           0
    6224 WTU3 1466 TIP3 H1   HT     0.417000        1.0079           0
    6225 WTU3 1466 TIP3 H2   HT     0.417000        1.0079           0
    6226 WTU3 1492 TIP3 OH2  OT    -0.834000       15.9994           0
    6227 WTU3 1492 TIP3 H1   HT     0.417000        1.0079           0
    6228 WTU3 1492 TIP3 H2   HT     0.417000        1.0079           0
    6229 WTU3 1514 TIP3 OH2  OT    -0.834000       15.9994           0
    6230 WTU3 1514 TIP3 H1   HT     0.417000        1.0079           0
    6231 WTU3 1514 TIP3 H2   HT     0.417000        1.0079           0
    6232 WTU3 1573 TIP3 OH2  OT    -0.834000       15.9994           0
    6233 WTU3 1573 TIP3 H1   HT     0.417000        1.0079           0
    6234 WTU3 1573 TIP3 H2   HT     0.417000        1.0079           0
    6235 WTU3 1599 TIP3 OH2  OT    -0.834000       15.9994           0
    6236 WTU3 1599 TIP3 H1   HT     0.417000        1.0079           0
    6237 WTU3 1599 TIP3 H2   HT     0.417000        1.0079           0
    6238 WTU3 1656 TIP3 OH2  OT    -0.834000       15.9994           0
    6239 WTU3 1656 TIP3 H1   HT     0.417000        1.0079           0
    6240 WTU3 1656 TIP3 H2   HT     0.417000        1.0079           0
    6241 WTU3 1725 TIP3 OH2  OT    -0.834000       15.9994           0
    6242 WTU3 1725 TIP3 H1   HT     0.417000        1.0079           0
    6243 WTU3 1725 TIP3 H2   HT     0.417000        1.0079           0
    6244 WTU3 1728 TIP3 OH2  OT    -0.834000       15.9994           0
    6245 WTU3 1728 TIP3 H1   HT     0.417000        1.0079           0
    6246 WTU3 1728 TIP3 H2   HT     0.417000        1.0079           0
    6247 WTU3 1751 TIP3 OH2  OT    -0.834000       15.9994           0
    6248 WTU3 1751 TIP3 H1   HT     0.417000        1.0079           0
    6249 WTU3 1751 TIP3 H2   HT     0.417000        1.0079           0
    6250 WTU3 1764 TIP3 OH2  OT    -0.834000       15.9994           0
    6251 WTU3 1764 TIP3 H1   HT     0.417000        1.0079           0
    6252 WTU3 1764 TIP3 H2   HT     0.417000        1.0079           0
    6253 WTU3 1771 TIP3 OH2  OT    -0.834000       15.9994           0
    6254 WTU3 1771 TIP3 H1   HT     0.417000        1.0079           0
    6255 WTU3 1771 TIP3 H2   HT     0.417000        1.0079           0
    6256 WTU3 1789 TIP3 OH2  OT    -0.834000       15.9994           0
    6257 WTU3 1789 TIP3 H1   HT     0.417000        1.0079           0
    6258 WTU3 1789 TIP3 H2   HT     0.417000        1.0079           0
    6259 WTU3 1849 TIP3 OH2  OT    -0.834000       15.9994           0
    6260 WTU3 1849 TIP3 H1   HT     0.417000        1.0079           0
    6261 WTU3 1849 TIP3 H2   HT     0.417000        1.0079           0
    6262 WTU3 1853 TIP3 OH2  OT    -0.834000       15.9994           0
    6263 WTU3 1853 TIP3 H1   HT     0.417000        1.0079           0
    6264 WTU3 1853 TIP3 H2   HT     0.417000        1.0079           0
    6265 WTU3 1892 TIP3 OH2  OT    -0.834000       15.9994           0
    6266 WTU3 1892 TIP3 H1   HT     0.417000        1.0079           0
    6267 WTU3 1892 TIP3 H2   HT     0.417000        1.0079           0
    6268 WTU3 1918 TIP3 OH2  OT    -0.834000       15.9994           0
    6269 WTU3 1918 TIP3 H1   HT     0.417000        1.0079           0
    6270 WTU3 1918 TIP3 H2   HT     0.417000        1.0079           0
    6271 WTU3 1978 TIP3 OH2  OT    -0.834000       15.9994           0
    6272 WTU3 1978 TIP3 H1   HT     0.417000        1.0079           0
    6273 WTU3 1978 TIP3 H2   HT     0.417000        1.0079           0
    6274 WTU3 2000 TIP3 OH2  OT    -0.834000       15.9994           0
    6275 WTU3 2000 TIP3 H1   HT     0.417000        1.0079           0
    6276 WTU3 2000 TIP3 H2   HT     0.417000        1.0079           0
    6277 WTU3 2022 TIP3 OH2  OT    -0.834000       15.9994           0
    6278 WTU3 2022 TIP3 H1   HT     0.417000        1.0079           0
    6279 WTU3 2022 TIP3 H2   HT     0.417000        1.0079           0
    6280 WTU3 2063 TIP3 OH2  OT    -0.834000       15.9994           0
    6281 WTU3 2063 TIP3 H1   HT     0.417000        1.0079           0
    6282 WTU3 2063 TIP3 H2   HT     0.417000        1.0079           0
    6283 WTU3 2183 TIP3 OH2  OT    -0.834000       15.9994           0
    6284 WTU3 2183 TIP3 H1   HT     0.417000        1.0079           0
    6285 WTU3 2183 TIP3 H2   HT     0.417000        1.0079           0
    6286 WTU3 2190 TIP3 OH2  OT    -0.834000       15.9994           0
    6287 WTU3 2190 TIP3 H1   HT     0.417000        1.0079           0
    6288 WTU3 2190 TIP3 H2   HT     0.417000        1.0079           0
    6289 WTU3 2270 TIP3 OH2  OT    -0.834000       15.9994           0
    6290 WTU3 2270 TIP3 H1   HT     0.417000        1.0079           0
    6291 WTU3 2270 TIP3 H2   HT     0.417000        1.0079           0
    6292 WTU3 2288 TIP3 OH2  OT    -0.834000       15.9994           0
    6293 WTU3 2288 TIP3 H1   HT     0.417000        1.0079           0
    6294 WTU3 2288 TIP3 H2   HT     0.417000        1.0079           0
    6295 WTU3 2290 TIP3 OH2  OT    -0.834000       15.9994           0
    6296 WTU3 2290 TIP3 H1   HT     0.417000        1.0079           0
    6297 WTU3 2290 TIP3 H2   HT     0.417000        1.0079           0
    6298 WTU3 2293 TIP3 OH2  OT    -0.834000       15.9994           0
    6299 WTU3 2293 TIP3 H1   HT     0.417000        1.0079           0
    6300 WTU3 2293 TIP3 H2   HT     0.417000        1.0079           0
    6301 WTU3 2357 TIP3 OH2  OT    -0.834000       15.9994           0
    6302 WTU3 2357 TIP3 H1   HT     0.417000        1.0079           0
    6303 WTU3 2357 TIP3 H2   HT     0.417000        1.0079           0
    6304 WTU3 2358 TIP3 OH2  OT    -0.834000       15.9994           0
    6305 WTU3 2358 TIP3 H1   HT     0.417000        1.0079           0
    6306 WTU3 2358 TIP3 H2   HT     0.417000        1.0079           0
    6307 WTU3 2395 TIP3 OH2  OT    -0.834000       15.9994           0
    6308 WTU3 2395 TIP3 H1   HT     0.417000        1.0079           0
    6309 WTU3 2395 TIP3 H2   HT     0.417000        1.0079           0
    6310 WTU3 2524 TIP3 OH2  OT    -0.834000       15.9994           0
    6311 WTU3 2524 TIP3 H1   HT     0.417000        1.0079           0
    6312 WTU3 2524 TIP3 H2   HT     0.417000        1.0079           0
    6313 WTU3 2525 TIP3 OH2  OT    -0.834000       15.9994           0
    6314 WTU3 2525 TIP3 H1   HT     0.417000        1.0079           0
    6315 WTU3 2525 TIP3 H2   HT     0.417000        1.0079           0
    6316 WTU3 2781 TIP3 OH2  OT    -0.834000       15.9994           0
    6317 WTU3 2781 TIP3 H1   HT     0.417000        1.0079           0
    6318 WTU3 2781 TIP3 H2   HT     0.417000        1.0079           0
    6319 WTU3 2903 TIP3 OH2  OT    -0.834000       15.9994           0
    6320 WTU3 2903 TIP3 H1   HT     0.417000        1.0079           0
    6321 WTU3 2903 TIP3 H2   HT     0.417000        1.0079           0
    6322 WTU3 3029 TIP3 OH2  OT    -0.834000       15.9994           0
    6323 WTU3 3029 TIP3 H1   HT     0.417000        1.0079           0
    6324 WTU3 3029 TIP3 H2   HT     0.417000        1.0079           0
    6325 WTU3 6240 TIP3 OH2  OT    -0.834000       15.9994           0
    6326 WTU3 6240 TIP3 H1   HT     0.417000        1.0079           0
    6327 WTU3 6240 TIP3 H2   HT     0.417000        1.0079           0
    6328 WTU3 6350 TIP3 OH2  OT    -0.834000       15.9994           0
    6329 WTU3 6350 TIP3 H1   HT     0.417000        1.0079           0
    6330 WTU3 6350 TIP3 H2   HT     0.417000        1.0079           0
    6331 WTU3 7510 TIP3 OH2  OT    -0.834000       15.9994           0
    6332 WTU3 7510 TIP3 H1   HT     0.417000        1.0079           0
    6333 WTU3 7510 TIP3 H2   HT     0.417000        1.0079           0
    6334 WTU3 7583 TIP3 OH2  OT    -0.834000       15.9994           0
    6335 WTU3 7583 TIP3 H1   HT     0.417000        1.0079           0
    6336 WTU3 7583 TIP3 H2   HT     0.417000        1.0079           0
    6337 WTU3 7603 TIP3 OH2  OT    -0.834000       15.9994           0
    6338 WTU3 7603 TIP3 H1   HT     0.417000        1.0079           0
    6339 WTU3 7603 TIP3 H2   HT     0.417000        1.0079           0
    6340 WTU3 7607 TIP3 OH2  OT    -0.834000       15.9994           0
    6341 WTU3 7607 TIP3 H1   HT     0.417000        1.0079           0
    6342 WTU3 7607 TIP3 H2   HT     0.417000        1.0079           0
    6343 WTU3 7630 TIP3 OH2  OT    -0.834000       15.9994           0
    6344 WTU3 7630 TIP3 H1   HT     0.417000        1.0079           0
    6345 WTU3 7630 TIP3 H2   HT     0.417000        1.0079           0
    6346 WTU3 7647 TIP3 OH2  OT    -0.834000       15.9994           0
    6347 WTU3 7647 TIP3 H1   HT     0.417000        1.0079           0
    6348 WTU3 7647 TIP3 H2   HT     0.417000        1.0079           0
    6349 WTU3 7650 TIP3 OH2  OT    -0.834000       15.9994           0
    6350 WTU3 7650 TIP3 H1   HT     0.417000        1.0079           0
    6351 WTU3 7650 TIP3 H2   HT     0.417000        1.0079           0
    6352 WTU3 7707 TIP3 OH2  OT    -0.834000       15.9994           0
    6353 WTU3 7707 TIP3 H1   HT     0.417000        1.0079           0
    6354 WTU3 7707 TIP3 H2   HT     0.417000        1.0079           0
    6355 WTU3 7748 TIP3 OH2  OT    -0.834000       15.9994           0
    6356 WTU3 7748 TIP3 H1   HT     0.417000        1.0079           0
    6357 WTU3 7748 TIP3 H2   HT     0.417000        1.0079           0
    6358 WTU3 7833 TIP3 OH2  OT    -0.834000       15.9994           0
    6359 WTU3 7833 TIP3 H1   HT     0.417000        1.0079           0
    6360 WTU3 7833 TIP3 H2   HT     0.417000        1.0079           0
    6361 WTU3 7959 TIP3 OH2  OT    -0.834000       15.9994           0
    6362 WTU3 7959 TIP3 H1   HT     0.417000        1.0079           0
    6363 WTU3 7959 TIP3 H2   HT     0.417000        1.0079           0
    6364 WTU3 7979 TIP3 OH2  OT    -0.834000       15.9994           0
    6365 WTU3 7979 TIP3 H1   HT     0.417000        1.0079           0
    6366 WTU3 7979 TIP3 H2   HT     0.417000        1.0079           0
    6367 WTU3 7985 TIP3 OH2  OT    -0.834000       15.9994           0
    6368 WTU3 7985 TIP3 H1   HT     0.417000        1.0079           0
    6369 WTU3 7985 TIP3 H2   HT     0.417000        1.0079           0
    6370 WTU3 8023 TIP3 OH2  OT    -0.834000       15.9994           0
    6371 WTU3 8023 TIP3 H1   HT     0.417000        1.0079           0
    6372 WTU3 8023 TIP3 H2   HT     0.417000        1.0079           0
    6373 WTU3 8024 TIP3 OH2  OT    -0.834000       15.9994           0
    6374 WTU3 8024 TIP3 H1   HT     0.417000        1.0079           0
    6375 WTU3 8024 TIP3 H2   HT     0.417000        1.0079           0
    6376 WTU3 8046 TIP3 OH2  OT    -0.834000       15.9994           0
    6377 WTU3 8046 TIP3 H1   HT     0.417000        1.0079           0
    6378 WTU3 8046 TIP3 H2   HT     0.417000        1.0079           0
    6379 WTU3 8064 TIP3 OH2  OT    -0.834000       15.9994           0
    6380 WTU3 8064 TIP3 H1   HT     0.417000        1.0079           0
    6381 WTU3 8064 TIP3 H2   HT     0.417000        1.0079           0
    6382 WTU3 8068 TIP3 OH2  OT    -0.834000       15.9994           0
    6383 WTU3 8068 TIP3 H1   HT     0.417000        1.0079           0
    6384 WTU3 8068 TIP3 H2   HT     0.417000        1.0079           0
    6385 WTU3 8136 TIP3 OH2  OT    -0.834000       15.9994           0
    6386 WTU3 8136 TIP3 H1   HT     0.417000        1.0079           0
    6387 WTU3 8136 TIP3 H2   HT     0.417000        1.0079           0
    6388 WTU3 8173 TIP3 OH2  OT    -0.834000       15.9994           0
    6389 WTU3 8173 TIP3 H1   HT     0.417000        1.0079           0
    6390 WTU3 8173 TIP3 H2   HT     0.417000        1.0079           0
    6391 WTU3 8174 TIP3 OH2  OT    -0.834000       15.9994           0
    6392 WTU3 8174 TIP3 H1   HT     0.417000        1.0079           0
    6393 WTU3 8174 TIP3 H2   HT     0.417000        1.0079           0
    6394 WTU3 8193 TIP3 OH2  OT    -0.834000       15.9994           0
    6395 WTU3 8193 TIP3 H1   HT     0.417000        1.0079           0
    6396 WTU3 8193 TIP3 H2   HT     0.417000        1.0079           0
    6397 WTU3 8278 TIP3 OH2  OT    -0.834000       15.9994           0
    6398 WTU3 8278 TIP3 H1   HT     0.417000        1.0079           0
    6399 WTU3 8278 TIP3 H2   HT     0.417000        1.0079           0
    6400 WTU3 8403 TIP3 OH2  OT    -0.834000       15.9994           0
    6401 WTU3 8403 TIP3 H1   HT     0.417000        1.0079           0
    6402 WTU3 8403 TIP3 H2   HT     0.417000        1.0079           0
    6403 WTU3 8425 TIP3 OH2  OT    -0.834000       15.9994           0
    6404 WTU3 8425 TIP3 H1   HT     0.417000        1.0079           0
    6405 WTU3 8425 TIP3 H2   HT     0.417000        1.0079           0
    6406 WTU3 8466 TIP3 OH2  OT    -0.834000       15.9994           0
    6407 WTU3 8466 TIP3 H1   HT     0.417000        1.0079           0
    6408 WTU3 8466 TIP3 H2   HT     0.417000        1.0079           0
    6409 WTU3 8468 TIP3 OH2  OT    -0.834000       15.9994           0
    6410 WTU3 8468 TIP3 H1   HT     0.417000        1.0079           0
    6411 WTU3 8468 TIP3 H2   HT     0.417000        1.0079           0
    6412 WTU3 8488 TIP3 OH2  OT    -0.834000       15.9994           0
    6413 WTU3 8488 TIP3 H1   HT     0.417000        1.0079           0
    6414 WTU3 8488 TIP3 H2   HT     0.417000        1.0079           0
    6415 WTU3 8528 TIP3 OH2  OT    -0.834000       15.9994           0
    6416 WTU3 8528 TIP3 H1   HT     0.417000        1.0079           0
    6417 WTU3 8528 TIP3 H2   HT     0.417000        1.0079           0
    6418 WTU3 8534 TIP3 OH2  OT    -0.834000       15.9994           0
    6419 WTU3 8534 TIP3 H1   HT     0.417000        1.0079           0
    6420 WTU3 8534 TIP3 H2   HT     0.417000        1.0079           0
    6421 WTU3 8551 TIP3 OH2  OT    -0.834000       15.9994           0
    6422 WTU3 8551 TIP3 H1   HT     0.417000        1.0079           0
    6423 WTU3 8551 TIP3 H2   HT     0.417000        1.0079           0
    6424 WTU3 8653 TIP3 OH2  OT    -0.834000       15.9994           0
    6425 WTU3 8653 TIP3 H1   HT     0.417000        1.0079           0
    6426 WTU3 8653 TIP3 H2   HT     0.417000        1.0079           0
    6427 WTU3 8675 TIP3 OH2  OT    -0.834000       15.9994           0
    6428 WTU3 8675 TIP3 H1   HT     0.417000        1.0079           0
    6429 WTU3 8675 TIP3 H2   HT     0.417000        1.0079           0
    6430 WTU3 8679 TIP3 OH2  OT    -0.834000       15.9994           0
    6431 WTU3 8679 TIP3 H1   HT     0.417000        1.0079           0
    6432 WTU3 8679 TIP3 H2   HT     0.417000        1.0079           0
    6433 WTU3 8691 TIP3 OH2  OT    -0.834000       15.9994           0
    6434 WTU3 8691 TIP3 H1   HT     0.417000        1.0079           0
    6435 WTU3 8691 TIP3 H2   HT     0.417000        1.0079           0
    6436 WTU3 8695 TIP3 OH2  OT    -0.834000       15.9994           0
    6437 WTU3 8695 TIP3 H1   HT     0.417000        1.0079           0
    6438 WTU3 8695 TIP3 H2   HT     0.417000        1.0079           0
    6439 WTU3 8699 TIP3 OH2  OT    -0.834000       15.9994           0
    6440 WTU3 8699 TIP3 H1   HT     0.417000        1.0079           0
    6441 WTU3 8699 TIP3 H2   HT     0.417000        1.0079           0
    6442 WTU3 8722 TIP3 OH2  OT    -0.834000       15.9994           0
    6443 WTU3 8722 TIP3 H1   HT     0.417000        1.0079           0
    6444 WTU3 8722 TIP3 H2   HT     0.417000        1.0079           0
    6445 WTU3 8780 TIP3 OH2  OT    -0.834000       15.9994           0
    6446 WTU3 8780 TIP3 H1   HT     0.417000        1.0079           0
    6447 WTU3 8780 TIP3 H2   HT     0.417000        1.0079           0
    6448 WTU3 8800 TIP3 OH2  OT    -0.834000       15.9994           0
    6449 WTU3 8800 TIP3 H1   HT     0.417000        1.0079           0
    6450 WTU3 8800 TIP3 H2   HT     0.417000        1.0079           0
    6451 WTU3 8822 TIP3 OH2  OT    -0.834000       15.9994           0
    6452 WTU3 8822 TIP3 H1   HT     0.417000        1.0079           0
    6453 WTU3 8822 TIP3 H2   HT     0.417000        1.0079           0
    6454 WTU3 8829 TIP3 OH2  OT    -0.834000       15.9994           0
    6455 WTU3 8829 TIP3 H1   HT     0.417000        1.0079           0
    6456 WTU3 8829 TIP3 H2   HT     0.417000        1.0079           0
    6457 WTU3 8845 TIP3 OH2  OT    -0.834000       15.9994           0
    6458 WTU3 8845 TIP3 H1   HT     0.417000        1.0079           0
    6459 WTU3 8845 TIP3 H2   HT     0.417000        1.0079           0
    6460 WTU3 8869 TIP3 OH2  OT    -0.834000       15.9994           0
    6461 WTU3 8869 TIP3 H1   HT     0.417000        1.0079           0
    6462 WTU3 8869 TIP3 H2   HT     0.417000        1.0079           0
    6463 WTU3 8927 TIP3 OH2  OT    -0.834000       15.9994           0
    6464 WTU3 8927 TIP3 H1   HT     0.417000        1.0079           0
    6465 WTU3 8927 TIP3 H2   HT     0.417000        1.0079           0
    6466 WTU3 8935 TIP3 OH2  OT    -0.834000       15.9994           0
    6467 WTU3 8935 TIP3 H1   HT     0.417000        1.0079           0
    6468 WTU3 8935 TIP3 H2   HT     0.417000        1.0079           0
    6469 WTU3 8973 TIP3 OH2  OT    -0.834000       15.9994           0
    6470 WTU3 8973 TIP3 H1   HT     0.417000        1.0079           0
    6471 WTU3 8973 TIP3 H2   HT     0.417000        1.0079           0
    6472 WTU3 8977 TIP3 OH2  OT    -0.834000       15.9994           0
    6473 WTU3 8977 TIP3 H1   HT     0.417000        1.0079           0
    6474 WTU3 8977 TIP3 H2   HT     0.417000        1.0079           0
    6475 WTU3 8988 TIP3 OH2  OT    -0.834000       15.9994           0
    6476 WTU3 8988 TIP3 H1   HT     0.417000        1.0079           0
    6477 WTU3 8988 TIP3 H2   HT     0.417000        1.0079           0
    6478 WTU3 9035 TIP3 OH2  OT    -0.834000       15.9994           0
    6479 WTU3 9035 TIP3 H1   HT     0.417000        1.0079           0
    6480 WTU3 9035 TIP3 H2   HT     0.417000        1.0079           0
    6481 WTU3 9047 TIP3 OH2  OT    -0.834000       15.9994           0
    6482 WTU3 9047 TIP3 H1   HT     0.417000        1.0079           0
    6483 WTU3 9047 TIP3 H2   HT     0.417000        1.0079           0
    6484 WTU3 9055 TIP3 OH2  OT    -0.834000       15.9994           0
    6485 WTU3 9055 TIP3 H1   HT     0.417000        1.0079           0
    6486 WTU3 9055 TIP3 H2   HT     0.417000        1.0079           0
    6487 WTU3 9073 TIP3 OH2  OT    -0.834000       15.9994           0
    6488 WTU3 9073 TIP3 H1   HT     0.417000        1.0079           0
    6489 WTU3 9073 TIP3 H2   HT     0.417000        1.0079           0
    6490 WTU3 9096 TIP3 OH2  OT    -0.834000       15.9994           0
    6491 WTU3 9096 TIP3 H1   HT     0.417000        1.0079           0
    6492 WTU3 9096 TIP3 H2   HT     0.417000        1.0079           0
    6493 WTU3 9097 TIP3 OH2  OT    -0.834000       15.9994           0
    6494 WTU3 9097 TIP3 H1   HT     0.417000        1.0079           0
    6495 WTU3 9097 TIP3 H2   HT     0.417000        1.0079           0
    6496 WTU3 9116 TIP3 OH2  OT    -0.834000       15.9994           0
    6497 WTU3 9116 TIP3 H1   HT     0.417000        1.0079           0
    6498 WTU3 9116 TIP3 H2   HT     0.417000        1.0079           0
    6499 WTU3 9157 TIP3 OH2  OT    -0.834000       15.9994           0
    6500 WTU3 9157 TIP3 H1   HT     0.417000        1.0079           0
    6501 WTU3 9157 TIP3 H2   HT     0.417000        1.0079           0
    6502 WTU3 9158 TIP3 OH2  OT    -0.834000       15.9994           0
    6503 WTU3 9158 TIP3 H1   HT     0.417000        1.0079           0
    6504 WTU3 9158 TIP3 H2   HT     0.417000        1.0079           0
    6505 WTU3 9161 TIP3 OH2  OT    -0.834000       15.9994           0
    6506 WTU3 9161 TIP3 H1   HT     0.417000        1.0079           0
    6507 WTU3 9161 TIP3 H2   HT     0.417000        1.0079           0
    6508 WTU3 9198 TIP3 OH2  OT    -0.834000       15.9994           0
    6509 WTU3 9198 TIP3 H1   HT     0.417000        1.0079           0
    6510 WTU3 9198 TIP3 H2   HT     0.417000        1.0079           0
    6511 WTU3 9223 TIP3 OH2  OT    -0.834000       15.9994           0
    6512 WTU3 9223 TIP3 H1   HT     0.417000        1.0079           0
    6513 WTU3 9223 TIP3 H2   HT     0.417000        1.0079           0
    6514 WTU3 9225 TIP3 OH2  OT    -0.834000       15.9994           0
    6515 WTU3 9225 TIP3 H1   HT     0.417000        1.0079           0
    6516 WTU3 9225 TIP3 H2   HT     0.417000        1.0079           0
    6517 WTU3 9227 TIP3 OH2  OT    -0.834000       15.9994           0
    6518 WTU3 9227 TIP3 H1   HT     0.417000        1.0079           0
    6519 WTU3 9227 TIP3 H2   HT     0.417000        1.0079           0
    6520 WTU3 9259 TIP3 OH2  OT    -0.834000       15.9994           0
    6521 WTU3 9259 TIP3 H1   HT     0.417000        1.0079           0
    6522 WTU3 9259 TIP3 H2   HT     0.417000        1.0079           0
    6523 WTU4 486  TIP3 OH2  OT    -0.834000       15.9994           0
    6524 WTU4 486  TIP3 H1   HT     0.417000        1.0079           0
    6525 WTU4 486  TIP3 H2   HT     0.417000        1.0079           0
    6526 WTU4 822  TIP3 OH2  OT    -0.834000       15.9994           0
    6527 WTU4 822  TIP3 H1   HT     0.417000        1.0079           0
    6528 WTU4 822  TIP3 H2   HT     0.417000        1.0079           0
    6529 WTU4 993  TIP3 OH2  OT    -0.834000       15.9994           0
    6530 WTU4 993  TIP3 H1   HT     0.417000        1.0079           0
    6531 WTU4 993  TIP3 H2   HT     0.417000        1.0079           0
    6532 WTU4 1301 TIP3 OH2  OT    -0.834000       15.9994           0
    6533 WTU4 1301 TIP3 H1   HT     0.417000        1.0079           0
    6534 WTU4 1301 TIP3 H2   HT     0.417000        1.0079           0
    6535 WTU4 1328 TIP3 OH2  OT    -0.834000       15.9994           0
    6536 WTU4 1328 TIP3 H1   HT     0.417000        1.0079           0
    6537 WTU4 1328 TIP3 H2   HT     0.417000        1.0079           0
    6538 WTU4 1370 TIP3 OH2  OT    -0.834000       15.9994           0
    6539 WTU4 1370 TIP3 H1   HT     0.417000        1.0079           0
    6540 WTU4 1370 TIP3 H2   HT     0.417000        1.0079           0
    6541 WTU4 1725 TIP3 OH2  OT    -0.834000       15.9994           0
    6542 WTU4 1725 TIP3 H1   HT     0.417000        1.0079           0
    6543 WTU4 1725 TIP3 H2   HT     0.417000        1.0079           0
    6544 WTU4 1764 TIP3 OH2  OT    -0.834000       15.9994           0
    6545 WTU4 1764 TIP3 H1   HT     0.417000        1.0079           0
    6546 WTU4 1764 TIP3 H2   HT     0.417000        1.0079           0
    6547 WTU4 1771 TIP3 OH2  OT    -0.834000       15.9994           0
    6548 WTU4 1771 TIP3 H1   HT     0.417000        1.0079           0
    6549 WTU4 1771 TIP3 H2   HT     0.417000        1.0079           0
    6550 WTU4 6240 TIP3 OH2  OT    -0.834000       15.9994           0
    6551 WTU4 6240 TIP3 H1   HT     0.417000        1.0079           0
    6552 WTU4 6240 TIP3 H2   HT     0.417000        1.0079           0
    6553 WTU4 7707 TIP3 OH2  OT    -0.834000       15.9994           0
    6554 WTU4 7707 TIP3 H1   HT     0.417000        1.0079           0
    6555 WTU4 7707 TIP3 H2   HT     0.417000        1.0079           0
    6556 WTU4 8425 TIP3 OH2  OT    -0.834000       15.9994           0
    6557 WTU4 8425 TIP3 H1   HT     0.417000        1.0079           0
    6558 WTU4 8425 TIP3 H2   HT     0.417000        1.0079           0
    6559 WTU4 8869 TIP3 OH2  OT    -0.834000       15.9994           0
    6560 WTU4 8869 TIP3 H1   HT     0.417000        1.0079           0
    6561 WTU4 8869 TIP3 H2   HT     0.417000        1.0079           0
    6562 WTD1 2    TIP3 OH2  OT    -0.834000       15.9994           0
    6563 WTD1 2    TIP3 H1   HT     0.417000        1.0079           0
    6564 WTD1 2    TIP3 H2   HT     0.417000        1.0079           0
    6565 WTD1 3    TIP3 OH2  OT    -0.834000       15.9994           0
    6566 WTD1 3    TIP3 H1   HT     0.417000        1.0079           0
    6567 WTD1 3    TIP3 H2   HT     0.417000        1.0079           0
    6568 WTD1 4    TIP3 OH2  OT    -0.834000       15.9994           0
    6569 WTD1 4    TIP3 H1   HT     0.417000        1.0079           0
    6570 WTD1 4    TIP3 H2   HT     0.417000        1.0079           0
    6571 WTD1 11   TIP3 OH2  OT    -0.834000       15.9994           0
    6572 WTD1 11   TIP3 H1   HT     0.417000        1.0079           0
    6573 WTD1 11   TIP3 H2   HT     0.417000        1.0079           0
    6574 WTD1 21   TIP3 OH2  OT    -0.834000       15.9994           0
    6575 WTD1 21   TIP3 H1   HT     0.417000        1.0079           0
    6576 WTD1 21   TIP3 H2   HT     0.417000        1.0079           0
    6577 WTD1 22   TIP3 OH2  OT    -0.834000       15.9994           0
    6578 WTD1 22   TIP3 H1   HT     0.417000        1.0079           0
    6579 WTD1 22   TIP3 H2   HT     0.417000        1.0079           0
    6580 WTD1 23   TIP3 OH2  OT    -0.834000       15.9994           0
    6581 WTD1 23   TIP3 H1   HT     0.417000        1.0079           0
    6582 WTD1 23   TIP3 H2   HT     0.417000        1.0079           0
    6583 WTD1 25   TIP3 OH2  OT    -0.834000       15.9994           0
    6584 WTD1 25   TIP3 H1   HT     0.417000        1.0079           0
    6585 WTD1 25   TIP3 H2   HT     0.417000        1.0079           0
    6586 WTD1 27   TIP3 OH2  OT    -0.834000       15.9994           0
    6587 WTD1 27   TIP3 H1   HT     0.417000        1.0079           0
    6588 WTD1 27   TIP3 H2   HT     0.417000        1.0079           0
    6589 WTD1 31   TIP3 OH2  OT    -0.834000       15.9994           0
    6590 WTD1 31   TIP3 H1   HT     0.417000        1.0079           0
    6591 WTD1 31   TIP3 H2   HT     0.417000        1.0079           0
    6592 WTD1 40   TIP3 OH2  OT    -0.834000       15.9994           0
    6593 WTD1 40   TIP3 H1   HT     0.417000        1.0079           0
    6594 WTD1 40   TIP3 H2   HT     0.417000        1.0079           0
    6595 WTD1 43   TIP3 OH2  OT    -0.834000       15.9994           0
    6596 WTD1 43   TIP3 H1   HT     0.417000        1.0079           0
    6597 WTD1 43   TIP3 H2   HT     0.417000        1.0079           0
    6598 WTD1 44   TIP3 OH2  OT    -0.834000       15.9994           0
    6599 WTD1 44   TIP3 H1   HT     0.417000        1.0079           0
    6600 WTD1 44   TIP3 H2   HT     0.417000        1.0079           0
    6601 WTD1 47   TIP3 OH2  OT    -0.834000       15.9994           0
    6602 WTD1 47   TIP3 H1   HT     0.417000        1.0079           0
    6603 WTD1 47   TIP3 H2   HT     0.417000        1.0079           0
    6604 WTD1 48   TIP3 OH2  OT    -0.834000       15.9994           0
    6605 WTD1 48   TIP3 H1   HT     0.417000        1.0079           0
    6606 WTD1 48   TIP3 H2   HT     0.417000        1.0079           0
    6607 WTD1 50   TIP3 OH2  OT    -0.834000       15.9994           0
    6608 WTD1 50   TIP3 H1   HT     0.417000        1.0079           0
    6609 WTD1 50   TIP3 H2   HT     0.417000        1.0079           0
    6610 WTD1 64   TIP3 OH2  OT    -0.834000       15.9994           0
    6611 WTD1 64   TIP3 H1   HT     0.417000        1.0079           0
    6612 WTD1 64   TIP3 H2   HT     0.417000        1.0079           0
    6613 WTD1 65   TIP3 OH2  OT    -0.834000       15.9994           0
    6614 WTD1 65   TIP3 H1   HT     0.417000        1.0079           0
    6615 WTD1 65   TIP3 H2   HT     0.417000        1.0079           0
    6616 WTD1 66   TIP3 OH2  OT    -0.834000       15.9994           0
    6617 WTD1 66   TIP3 H1   HT     0.417000        1.0079           0
    6618 WTD1 66   TIP3 H2   HT     0.417000        1.0079           0
    6619 WTD1 69   TIP3 OH2  OT    -0.834000       15.9994           0
    6620 WTD1 69   TIP3 H1   HT     0.417000        1.0079           0
    6621 WTD1 69   TIP3 H2   HT     0.417000        1.0079           0
    6622 WTD1 83   TIP3 OH2  OT    -0.834000       15.9994           0
    6623 WTD1 83   TIP3 H1   HT     0.417000        1.0079           0
    6624 WTD1 83   TIP3 H2   HT     0.417000        1.0079           0
    6625 WTD1 85   TIP3 OH2  OT    -0.834000       15.9994           0
    6626 WTD1 85   TIP3 H1   HT     0.417000        1.0079           0
    6627 WTD1 85   TIP3 H2   HT     0.417000        1.0079           0
    6628 WTD1 86   TIP3 OH2  OT    -0.834000       15.9994           0
    6629 WTD1 86   TIP3 H1   HT     0.417000        1.0079           0
    6630 WTD1 86   TIP3 H2   HT     0.417000        1.0079           0
    6631 WTD1 87   TIP3 OH2  OT    -0.834000       15.9994           0
    6632 WTD1 87   TIP3 H1   HT     0.417000        1.0079           0
    6633 WTD1 87   TIP3 H2   HT     0.417000        1.0079           0
    6634 WTD1 88   TIP3 OH2  OT    -0.834000       15.9994           0
    6635 WTD1 88   TIP3 H1   HT     0.417000        1.0079           0
    6636 WTD1 88   TIP3 H2   HT     0.417000        1.0079           0
    6637 WTD1 90   TIP3 OH2  OT    -0.834000       15.9994           0
    6638 WTD1 90   TIP3 H1   HT     0.417000        1.0079           0
    6639 WTD1 90   TIP3 H2   HT     0.417000        1.0079           0
    6640 WTD1 107  TIP3 OH2  OT    -0.834000       15.9994           0
    6641 WTD1 107  TIP3 H1   HT     0.417000        1.0079           0
    6642 WTD1 107  TIP3 H2   HT     0.417000        1.0079           0
    6643 WTD1 108  TIP3 OH2  OT    -0.834000       15.9994           0
    6644 WTD1 108  TIP3 H1   HT     0.417000        1.0079           0
    6645 WTD1 108  TIP3 H2   HT     0.417000        1.0079           0
    6646 WTD1 109  TIP3 OH2  OT    -0.834000       15.9994           0
    6647 WTD1 109  TIP3 H1   HT     0.417000        1.0079           0
    6648 WTD1 109  TIP3 H2   HT     0.417000        1.0079           0
    6649 WTD1 111  TIP3 OH2  OT    -0.834000       15.9994           0
    6650 WTD1 111  TIP3 H1   HT     0.417000        1.0079           0
    6651 WTD1 111  TIP3 H2   HT     0.417000        1.0079           0
    6652 WTD1 112  TIP3 OH2  OT    -0.834000       15.9994           0
    6653 WTD1 112  TIP3 H1   HT     0.417000        1.0079           0
    6654 WTD1 112  TIP3 H2   HT     0.417000        1.0079           0
    6655 WTD1 125  TIP3 OH2  OT    -0.834000       15.9994           0
    6656 WTD1 125  TIP3 H1   HT     0.417000        1.0079           0
    6657 WTD1 125  TIP3 H2   HT     0.417000        1.0079           0
    6658 WTD1 130  TIP3 OH2  OT    -0.834000       15.9994           0
    6659 WTD1 130  TIP3 H1   HT     0.417000        1.0079           0
    6660 WTD1 130  TIP3 H2   HT     0.417000        1.0079           0
    6661 WTD1 132  TIP3 OH2  OT    -0.834000       15.9994           0
    6662 WTD1 132  TIP3 H1   HT     0.417000        1.0079           0
    6663 WTD1 132  TIP3 H2   HT     0.417000        1.0079           0
    6664 WTD1 144  TIP3 OH2  OT    -0.834000       15.9994           0
    6665 WTD1 144  TIP3 H1   HT     0.417000        1.0079           0
    6666 WTD1 144  TIP3 H2   HT     0.417000        1.0079           0
    6667 WTD1 145  TIP3 OH2  OT    -0.834000       15.9994           0
    6668 WTD1 145  TIP3 H1   HT     0.417000        1.0079           0
    6669 WTD1 145  TIP3 H2   HT     0.417000        1.0079           0
    6670 WTD1 146  TIP3 OH2  OT    -0.834000       15.9994           0
    6671 WTD1 146  TIP3 H1   HT     0.417000        1.0079           0
    6672 WTD1 146  TIP3 H2   HT     0.417000        1.0079           0
    6673 WTD1 149  TIP3 OH2  OT    -0.834000       15.9994           0
    6674 WTD1 149  TIP3 H1   HT     0.417000        1.0079           0
    6675 WTD1 149  TIP3 H2   HT     0.417000        1.0079           0
    6676 WTD1 150  TIP3 OH2  OT    -0.834000       15.9994           0
    6677 WTD1 150  TIP3 H1   HT     0.417000        1.0079           0
    6678 WTD1 150  TIP3 H2   HT     0.417000        1.0079           0
    6679 WTD1 152  TIP3 OH2  OT    -0.834000       15.9994           0
    6680 WTD1 152  TIP3 H1   HT     0.417000        1.0079           0
    6681 WTD1 152  TIP3 H2   HT     0.417000        1.0079           0
    6682 WTD1 154  TIP3 OH2  OT    -0.834000       15.9994           0
    6683 WTD1 154  TIP3 H1   HT     0.417000        1.0079           0
    6684 WTD1 154  TIP3 H2   HT     0.417000        1.0079           0
    6685 WTD1 167  TIP3 OH2  OT    -0.834000       15.9994           0
    6686 WTD1 167  TIP3 H1   HT     0.417000        1.0079           0
    6687 WTD1 167  TIP3 H2   HT     0.417000        1.0079           0
    6688 WTD1 174  TIP3 OH2  OT    -0.834000       15.9994           0
    6689 WTD1 174  TIP3 H1   HT     0.417000        1.0079           0
    6690 WTD1 174  TIP3 H2   HT     0.417000        1.0079           0
    6691 WTD1 190  TIP3 OH2  OT    -0.834000       15.9994           0
    6692 WTD1 190  TIP3 H1   HT     0.417000        1.0079           0
    6693 WTD1 190  TIP3 H2   HT     0.417000        1.0079           0
    6694 WTD1 191  TIP3 OH2  OT    -0.834000       15.9994           0
    6695 WTD1 191  TIP3 H1   HT     0.417000        1.0079           0
    6696 WTD1 191  TIP3 H2   HT     0.417000        1.0079           0
    6697 WTD1 192  TIP3 OH2  OT    -0.834000       15.9994           0
    6698 WTD1 192  TIP3 H1   HT     0.417000        1.0079           0
    6699 WTD1 192  TIP3 H2   HT     0.417000        1.0079           0
    6700 WTD1 195  TIP3 OH2  OT    -0.834000       15.9994           0
    6701 WTD1 195  TIP3 H1   HT     0.417000        1.0079           0
    6702 WTD1 195  TIP3 H2   HT     0.417000        1.0079           0
    6703 WTD1 196  TIP3 OH2  OT    -0.834000       15.9994           0
    6704 WTD1 196  TIP3 H1   HT     0.417000        1.0079           0
    6705 WTD1 196  TIP3 H2   HT     0.417000        1.0079           0
    6706 WTD1 217  TIP3 OH2  OT    -0.834000       15.9994           0
    6707 WTD1 217  TIP3 H1   HT     0.417000        1.0079           0
    6708 WTD1 217  TIP3 H2   HT     0.417000        1.0079           0
    6709 WTD1 233  TIP3 OH2  OT    -0.834000       15.9994           0
    6710 WTD1 233  TIP3 H1   HT     0.417000        1.0079           0
    6711 WTD1 233  TIP3 H2   HT     0.417000        1.0079           0
    6712 WTD1 237  TIP3 OH2  OT    -0.834000       15.9994           0
    6713 WTD1 237  TIP3 H1   HT     0.417000        1.0079           0
    6714 WTD1 237  TIP3 H2   HT     0.417000        1.0079           0
    6715 WTD1 252  TIP3 OH2  OT    -0.834000       15.9994           0
    6716 WTD1 252  TIP3 H1   HT     0.417000        1.0079           0
    6717 WTD1 252  TIP3 H2   HT     0.417000        1.0079           0
    6718 WTD1 253  TIP3 OH2  OT    -0.834000       15.9994           0
    6719 WTD1 253  TIP3 H1   HT     0.417000        1.0079           0
    6720 WTD1 253  TIP3 H2   HT     0.417000        1.0079           0
    6721 WTD1 255  TIP3 OH2  OT    -0.834000       15.9994           0
    6722 WTD1 255  TIP3 H1   HT     0.417000        1.0079           0
    6723 WTD1 255  TIP3 H2   HT     0.417000        1.0079           0
    6724 WTD1 256  TIP3 OH2  OT    -0.834000       15.9994           0
    6725 WTD1 256  TIP3 H1   HT     0.417000        1.0079           0
    6726 WTD1 256  TIP3 H2   HT     0.417000        1.0079           0
    6727 WTD1 257  TIP3 OH2  OT    -0.834000       15.9994           0
    6728 WTD1 257  TIP3 H1   HT     0.417000        1.0079           0
    6729 WTD1 257  TIP3 H2   HT     0.417000        1.0079           0
    6730 WTD1 258  TIP3 OH2  OT    -0.834000       15.9994           0
    6731 WTD1 258  TIP3 H1   HT     0.417000        1.0079           0
    6732 WTD1 258  TIP3 H2   HT     0.417000        1.0079           0
    6733 WTD1 273  TIP3 OH2  OT    -0.834000       15.9994           0
    6734 WTD1 273  TIP3 H1   HT     0.417000        1.0079           0
    6735 WTD1 273  TIP3 H2   HT     0.417000        1.0079           0
    6736 WTD1 278  TIP3 OH2  OT    -0.834000       15.9994           0
    6737 WTD1 278  TIP3 H1   HT     0.417000        1.0079           0
    6738 WTD1 278  TIP3 H2   HT     0.417000        1.0079           0
    6739 WTD1 280  TIP3 OH2  OT    -0.834000       15.9994           0
    6740 WTD1 280  TIP3 H1   HT     0.417000        1.0079           0
    6741 WTD1 280  TIP3 H2   HT     0.417000        1.0079           0
    6742 WTD1 296  TIP3 OH2  OT    -0.834000       15.9994           0
    6743 WTD1 296  TIP3 H1   HT     0.417000        1.0079           0
    6744 WTD1 296  TIP3 H2   HT     0.417000        1.0079           0
    6745 WTD1 297  TIP3 OH2  OT    -0.834000       15.9994           0
    6746 WTD1 297  TIP3 H1   HT     0.417000        1.0079           0
    6747 WTD1 297  TIP3 H2   HT     0.417000        1.0079           0
    6748 WTD1 299  TIP3 OH2  OT    -0.834000       15.9994           0
    6749 WTD1 299  TIP3 H1   HT     0.417000        1.0079           0
    6750 WTD1 299  TIP3 H2   HT     0.417000        1.0079           0
    6751 WTD1 300  TIP3 OH2  OT    -0.834000       15.9994           0
    6752 WTD1 300  TIP3 H1   HT     0.417000        1.0079           0
    6753 WTD1 300  TIP3 H2   HT     0.417000        1.0079           0
    6754 WTD1 316  TIP3 OH2  OT    -0.834000       15.9994           0
    6755 WTD1 316  TIP3 H1   HT     0.417000        1.0079           0
    6756 WTD1 316  TIP3 H2   HT     0.417000        1.0079           0
    6757 WTD1 319  TIP3 OH2  OT    -0.834000       15.9994           0
    6758 WTD1 319  TIP3 H1   HT     0.417000        1.0079           0
    6759 WTD1 319  TIP3 H2   HT     0.417000        1.0079           0
    6760 WTD1 321  TIP3 OH2  OT    -0.834000       15.9994           0
    6761 WTD1 321  TIP3 H1   HT     0.417000        1.0079           0
    6762 WTD1 321  TIP3 H2   HT     0.417000        1.0079           0
    6763 WTD1 334  TIP3 OH2  OT    -0.834000       15.9994           0
    6764 WTD1 334  TIP3 H1   HT     0.417000        1.0079           0
    6765 WTD1 334  TIP3 H2   HT     0.417000        1.0079           0
    6766 WTD1 335  TIP3 OH2  OT    -0.834000       15.9994           0
    6767 WTD1 335  TIP3 H1   HT     0.417000        1.0079           0
    6768 WTD1 335  TIP3 H2   HT     0.417000        1.0079           0
    6769 WTD1 337  TIP3 OH2  OT    -0.834000       15.9994           0
    6770 WTD1 337  TIP3 H1   HT     0.417000        1.0079           0
    6771 WTD1 337  TIP3 H2   HT     0.417000        1.0079           0
    6772 WTD1 338  TIP3 OH2  OT    -0.834000       15.9994           0
    6773 WTD1 338  TIP3 H1   HT     0.417000        1.0079           0
    6774 WTD1 338  TIP3 H2   HT     0.417000        1.0079           0
    6775 WTD1 341  TIP3 OH2  OT    -0.834000       15.9994           0
    6776 WTD1 341  TIP3 H1   HT     0.417000        1.0079           0
    6777 WTD1 341  TIP3 H2   HT     0.417000        1.0079           0
    6778 WTD1 344  TIP3 OH2  OT    -0.834000       15.9994           0
    6779 WTD1 344  TIP3 H1   HT     0.417000        1.0079           0
    6780 WTD1 344  TIP3 H2   HT     0.417000        1.0079           0
    6781 WTD1 361  TIP3 OH2  OT    -0.834000       15.9994           0
    6782 WTD1 361  TIP3 H1   HT     0.417000        1.0079           0
    6783 WTD1 361  TIP3 H2   HT     0.417000        1.0079           0
    6784 WTD1 364  TIP3 OH2  OT    -0.834000       15.9994           0
    6785 WTD1 364  TIP3 H1   HT     0.417000        1.0079           0
    6786 WTD1 364  TIP3 H2   HT     0.417000        1.0079           0
    6787 WTD1 375  TIP3 OH2  OT    -0.834000       15.9994           0
    6788 WTD1 375  TIP3 H1   HT     0.417000        1.0079           0
    6789 WTD1 375  TIP3 H2   HT     0.417000        1.0079           0
    6790 WTD1 378  TIP3 OH2  OT    -0.834000       15.9994           0
    6791 WTD1 378  TIP3 H1   HT     0.417000        1.0079           0
    6792 WTD1 378  TIP3 H2   HT     0.417000        1.0079           0
    6793 WTD1 381  TIP3 OH2  OT    -0.834000       15.9994           0
    6794 WTD1 381  TIP3 H1   HT     0.417000        1.0079           0
    6795 WTD1 381  TIP3 H2   HT     0.417000        1.0079           0
    6796 WTD1 383  TIP3 OH2  OT    -0.834000       15.9994           0
    6797 WTD1 383  TIP3 H1   HT     0.417000        1.0079           0
    6798 WTD1 383  TIP3 H2   HT     0.417000        1.0079           0
    6799 WTD1 384  TIP3 OH2  OT    -0.834000       15.9994           0
    6800 WTD1 384  TIP3 H1   HT     0.417000        1.0079           0
    6801 WTD1 384  TIP3 H2   HT     0.417000        1.0079           0
    6802 WTD1 401  TIP3 OH2  OT    -0.834000       15.9994           0
    6803 WTD1 401  TIP3 H1   HT     0.417000        1.0079           0
    6804 WTD1 401  TIP3 H2   HT     0.417000        1.0079           0
    6805 WTD1 403  TIP3 OH2  OT    -0.834000       15.9994           0
    6806 WTD1 403  TIP3 H1   HT     0.417000        1.0079           0
    6807 WTD1 403  TIP3 H2   HT     0.417000        1.0079           0
    6808 WTD1 404  TIP3 OH2  OT    -0.834000       15.9994           0
    6809 WTD1 404  TIP3 H1   HT     0.417000        1.0079           0
    6810 WTD1 404  TIP3 H2   HT     0.417000        1.0079           0
    6811 WTD1 420  TIP3 OH2  OT    -0.834000       15.9994           0
    6812 WTD1 420  TIP3 H1   HT     0.417000        1.0079           0
    6813 WTD1 420  TIP3 H2   HT     0.417000        1.0079           0
    6814 WTD1 424  TIP3 OH2  OT    -0.834000       15.9994           0
    6815 WTD1 424  TIP3 H1   HT     0.417000        1.0079           0
    6816 WTD1 424  TIP3 H2   HT     0.417000        1.0079           0
    6817 WTD1 425  TIP3 OH2  OT    -0.834000       15.9994           0
    6818 WTD1 425  TIP3 H1   HT     0.417000        1.0079           0
    6819 WTD1 425  TIP3 H2   HT     0.417000        1.0079           0
    6820 WTD1 426  TIP3 OH2  OT    -0.834000       15.9994           0
    6821 WTD1 426  TIP3 H1   HT     0.417000        1.0079           0
    6822 WTD1 426  TIP3 H2   HT     0.417000        1.0079           0
    6823 WTD1 427  TIP3 OH2  OT    -0.834000       15.9994           0
    6824 WTD1 427  TIP3 H1   HT     0.417000        1.0079           0
    6825 WTD1 427  TIP3 H2   HT     0.417000        1.0079           0
    6826 WTD1 439  TIP3 OH2  OT    -0.834000       15.9994           0
    6827 WTD1 439  TIP3 H1   HT     0.417000        1.0079           0
    6828 WTD1 439  TIP3 H2   HT     0.417000        1.0079           0
    6829 WTD1 443  TIP3 OH2  OT    -0.834000       15.9994           0
    6830 WTD1 443  TIP3 H1   HT     0.417000        1.0079           0
    6831 WTD1 443  TIP3 H2   HT     0.417000        1.0079           0
    6832 WTD1 444  TIP3 OH2  OT    -0.834000       15.9994           0
    6833 WTD1 444  TIP3 H1   HT     0.417000        1.0079           0
    6834 WTD1 444  TIP3 H2   HT     0.417000        1.0079           0
    6835 WTD1 446  TIP3 OH2  OT    -0.834000       15.9994           0
    6836 WTD1 446  TIP3 H1   HT     0.417000        1.0079           0
    6837 WTD1 446  TIP3 H2   HT     0.417000        1.0079           0
    6838 WTD1 447  TIP3 OH2  OT    -0.834000       15.9994           0
    6839 WTD1 447  TIP3 H1   HT     0.417000        1.0079           0
    6840 WTD1 447  TIP3 H2   HT     0.417000        1.0079           0
    6841 WTD1 460  TIP3 OH2  OT    -0.834000       15.9994           0
    6842 WTD1 460  TIP3 H1   HT     0.417000        1.0079           0
    6843 WTD1 460  TIP3 H2   HT     0.417000        1.0079           0
    6844 WTD1 465  TIP3 OH2  OT    -0.834000       15.9994           0
    6845 WTD1 465  TIP3 H1   HT     0.417000        1.0079           0
    6846 WTD1 465  TIP3 H2   HT     0.417000        1.0079           0
    6847 WTD1 466  TIP3 OH2  OT    -0.834000       15.9994           0
    6848 WTD1 466  TIP3 H1   HT     0.417000        1.0079           0
    6849 WTD1 466  TIP3 H2   HT     0.417000        1.0079           0
    6850 WTD1 467  TIP3 OH2  OT    -0.834000       15.9994           0
    6851 WTD1 467  TIP3 H1   HT     0.417000        1.0079           0
    6852 WTD1 467  TIP3 H2   HT     0.417000        1.0079           0
    6853 WTD1 468  TIP3 OH2  OT    -0.834000       15.9994           0
    6854 WTD1 468  TIP3 H1   HT     0.417000        1.0079           0
    6855 WTD1 468  TIP3 H2   HT     0.417000        1.0079           0
    6856 WTD1 469  TIP3 OH2  OT    -0.834000       15.9994           0
    6857 WTD1 469  TIP3 H1   HT     0.417000        1.0079           0
    6858 WTD1 469  TIP3 H2   HT     0.417000        1.0079           0
    6859 WTD1 472  TIP3 OH2  OT    -0.834000       15.9994           0
    6860 WTD1 472  TIP3 H1   HT     0.417000        1.0079           0
    6861 WTD1 472  TIP3 H2   HT     0.417000        1.0079           0
    6862 WTD1 478  TIP3 OH2  OT    -0.834000       15.9994           0
    6863 WTD1 478  TIP3 H1   HT     0.417000        1.0079           0
    6864 WTD1 478  TIP3 H2   HT     0.417000        1.0079           0
    6865 WTD1 483  TIP3 OH2  OT    -0.834000       15.9994           0
    6866 WTD1 483  TIP3 H1   HT     0.417000        1.0079           0
    6867 WTD1 483  TIP3 H2   HT     0.417000        1.0079           0
    6868 WTD1 484  TIP3 OH2  OT    -0.834000       15.9994           0
    6869 WTD1 484  TIP3 H1   HT     0.417000        1.0079           0
    6870 WTD1 484  TIP3 H2   HT     0.417000        1.0079           0
    6871 WTD1 485  TIP3 OH2  OT    -0.834000       15.9994           0
    6872 WTD1 485  TIP3 H1   HT     0.417000        1.0079           0
    6873 WTD1 485  TIP3 H2   HT     0.417000        1.0079           0
    6874 WTD1 486  TIP3 OH2  OT    -0.834000       15.9994           0
    6875 WTD1 486  TIP3 H1   HT     0.417000        1.0079           0
    6876 WTD1 486  TIP3 H2   HT     0.417000        1.0079           0
    6877 WTD1 492  TIP3 OH2  OT    -0.834000       15.9994           0
    6878 WTD1 492  TIP3 H1   HT     0.417000        1.0079           0
    6879 WTD1 492  TIP3 H2   HT     0.417000        1.0079           0
    6880 WTD1 503  TIP3 OH2  OT    -0.834000       15.9994           0
    6881 WTD1 503  TIP3 H1   HT     0.417000        1.0079           0
    6882 WTD1 503  TIP3 H2   HT     0.417000        1.0079           0
    6883 WTD1 507  TIP3 OH2  OT    -0.834000       15.9994           0
    6884 WTD1 507  TIP3 H1   HT     0.417000        1.0079           0
    6885 WTD1 507  TIP3 H2   HT     0.417000        1.0079           0
    6886 WTD1 508  TIP3 OH2  OT    -0.834000       15.9994           0
    6887 WTD1 508  TIP3 H1   HT     0.417000        1.0079           0
    6888 WTD1 508  TIP3 H2   HT     0.417000        1.0079           0
    6889 WTD1 512  TIP3 OH2  OT    -0.834000       15.9994           0
    6890 WTD1 512  TIP3 H1   HT     0.417000        1.0079           0
    6891 WTD1 512  TIP3 H2   HT     0.417000        1.0079           0
    6892 WTD1 529  TIP3 OH2  OT    -0.834000       15.9994           0
    6893 WTD1 529  TIP3 H1   HT     0.417000        1.0079           0
    6894 WTD1 529  TIP3 H2   HT     0.417000        1.0079           0
    6895 WTD1 530  TIP3 OH2  OT    -0.834000       15.9994           0
    6896 WTD1 530  TIP3 H1   HT     0.417000        1.0079           0
    6897 WTD1 530  TIP3 H2   HT     0.417000        1.0079           0
    6898 WTD1 543  TIP3 OH2  OT    -0.834000       15.9994           0
    6899 WTD1 543  TIP3 H1   HT     0.417000        1.0079           0
    6900 WTD1 543  TIP3 H2   HT     0.417000        1.0079           0
    6901 WTD1 554  TIP3 OH2  OT    -0.834000       15.9994           0
    6902 WTD1 554  TIP3 H1   HT     0.417000        1.0079           0
    6903 WTD1 554  TIP3 H2   HT     0.417000        1.0079           0
    6904 WTD1 562  TIP3 OH2  OT    -0.834000       15.9994           0
    6905 WTD1 562  TIP3 H1   HT     0.417000        1.0079           0
    6906 WTD1 562  TIP3 H2   HT     0.417000        1.0079           0
    6907 WTD1 568  TIP3 OH2  OT    -0.834000       15.9994           0
    6908 WTD1 568  TIP3 H1   HT     0.417000        1.0079           0
    6909 WTD1 568  TIP3 H2   HT     0.417000        1.0079           0
    6910 WTD1 570  TIP3 OH2  OT    -0.834000       15.9994           0
    6911 WTD1 570  TIP3 H1   HT     0.417000        1.0079           0
    6912 WTD1 570  TIP3 H2   HT     0.417000        1.0079           0
    6913 WTD1 572  TIP3 OH2  OT    -0.834000       15.9994           0
    6914 WTD1 572  TIP3 H1   HT     0.417000        1.0079           0
    6915 WTD1 572  TIP3 H2   HT     0.417000        1.0079           0
    6916 WTD1 575  TIP3 OH2  OT    -0.834000       15.9994           0
    6917 WTD1 575  TIP3 H1   HT     0.417000        1.0079           0
    6918 WTD1 575  TIP3 H2   HT     0.417000        1.0079           0
    6919 WTD1 584  TIP3 OH2  OT    -0.834000       15.9994           0
    6920 WTD1 584  TIP3 H1   HT     0.417000        1.0079           0
    6921 WTD1 584  TIP3 H2   HT     0.417000        1.0079           0
    6922 WTD1 588  TIP3 OH2  OT    -0.834000       15.9994           0
    6923 WTD1 588  TIP3 H1   HT     0.417000        1.0079           0
    6924 WTD1 588  TIP3 H2   HT     0.417000        1.0079           0
    6925 WTD1 591  TIP3 OH2  OT    -0.834000       15.9994           0
    6926 WTD1 591  TIP3 H1   HT     0.417000        1.0079           0
    6927 WTD1 591  TIP3 H2   HT     0.417000        1.0079           0
    6928 WTD1 592  TIP3 OH2  OT    -0.834000       15.9994           0
    6929 WTD1 592  TIP3 H1   HT     0.417000        1.0079           0
    6930 WTD1 592  TIP3 H2   HT     0.417000        1.0079           0
    6931 WTD1 593  TIP3 OH2  OT    -0.834000       15.9994           0
    6932 WTD1 593  TIP3 H1   HT     0.417000        1.0079           0
    6933 WTD1 593  TIP3 H2   HT     0.417000        1.0079           0
    6934 WTD1 594  TIP3 OH2  OT    -0.834000       15.9994           0
    6935 WTD1 594  TIP3 H1   HT     0.417000        1.0079           0
    6936 WTD1 594  TIP3 H2   HT     0.417000        1.0079           0
    6937 WTD1 612  TIP3 OH2  OT    -0.834000       15.9994           0
    6938 WTD1 612  TIP3 H1   HT     0.417000        1.0079           0
    6939 WTD1 612  TIP3 H2   HT     0.417000        1.0079           0
    6940 WTD1 613  TIP3 OH2  OT    -0.834000       15.9994           0
    6941 WTD1 613  TIP3 H1   HT     0.417000        1.0079           0
    6942 WTD1 613  TIP3 H2   HT     0.417000        1.0079           0
    6943 WTD1 632  TIP3 OH2  OT    -0.834000       15.9994           0
    6944 WTD1 632  TIP3 H1   HT     0.417000        1.0079           0
    6945 WTD1 632  TIP3 H2   HT     0.417000        1.0079           0
    6946 WTD1 634  TIP3 OH2  OT    -0.834000       15.9994           0
    6947 WTD1 634  TIP3 H1   HT     0.417000        1.0079           0
    6948 WTD1 634  TIP3 H2   HT     0.417000        1.0079           0
    6949 WTD1 653  TIP3 OH2  OT    -0.834000       15.9994           0
    6950 WTD1 653  TIP3 H1   HT     0.417000        1.0079           0
    6951 WTD1 653  TIP3 H2   HT     0.417000        1.0079           0
    6952 WTD1 654  TIP3 OH2  OT    -0.834000       15.9994           0
    6953 WTD1 654  TIP3 H1   HT     0.417000        1.0079           0
    6954 WTD1 654  TIP3 H2   HT     0.417000        1.0079           0
    6955 WTD1 656  TIP3 OH2  OT    -0.834000       15.9994           0
    6956 WTD1 656  TIP3 H1   HT     0.417000        1.0079           0
    6957 WTD1 656  TIP3 H2   HT     0.417000        1.0079           0
    6958 WTD1 657  TIP3 OH2  OT    -0.834000       15.9994           0
    6959 WTD1 657  TIP3 H1   HT     0.417000        1.0079           0
    6960 WTD1 657  TIP3 H2   HT     0.417000        1.0079           0
    6961 WTD1 672  TIP3 OH2  OT    -0.834000       15.9994           0
    6962 WTD1 672  TIP3 H1   HT     0.417000        1.0079           0
    6963 WTD1 672  TIP3 H2   HT     0.417000        1.0079           0
    6964 WTD1 674  TIP3 OH2  OT    -0.834000       15.9994           0
    6965 WTD1 674  TIP3 H1   HT     0.417000        1.0079           0
    6966 WTD1 674  TIP3 H2   HT     0.417000        1.0079           0
    6967 WTD1 675  TIP3 OH2  OT    -0.834000       15.9994           0
    6968 WTD1 675  TIP3 H1   HT     0.417000        1.0079           0
    6969 WTD1 675  TIP3 H2   HT     0.417000        1.0079           0
    6970 WTD1 676  TIP3 OH2  OT    -0.834000       15.9994           0
    6971 WTD1 676  TIP3 H1   HT     0.417000        1.0079           0
    6972 WTD1 676  TIP3 H2   HT     0.417000        1.0079           0
    6973 WTD1 692  TIP3 OH2  OT    -0.834000       15.9994           0
    6974 WTD1 692  TIP3 H1   HT     0.417000        1.0079           0
    6975 WTD1 692  TIP3 H2   HT     0.417000        1.0079           0
    6976 WTD1 696  TIP3 OH2  OT    -0.834000       15.9994           0
    6977 WTD1 696  TIP3 H1   HT     0.417000        1.0079           0
    6978 WTD1 696  TIP3 H2   HT     0.417000        1.0079           0
    6979 WTD1 697  TIP3 OH2  OT    -0.834000       15.9994           0
    6980 WTD1 697  TIP3 H1   HT     0.417000        1.0079           0
    6981 WTD1 697  TIP3 H2   HT     0.417000        1.0079           0
    6982 WTD1 698  TIP3 OH2  OT    -0.834000       15.9994           0
    6983 WTD1 698  TIP3 H1   HT     0.417000        1.0079           0
    6984 WTD1 698  TIP3 H2   HT     0.417000        1.0079           0
    6985 WTD1 715  TIP3 OH2  OT    -0.834000       15.9994           0
    6986 WTD1 715  TIP3 H1   HT     0.417000        1.0079           0
    6987 WTD1 715  TIP3 H2   HT     0.417000        1.0079           0
    6988 WTD1 716  TIP3 OH2  OT    -0.834000       15.9994           0
    6989 WTD1 716  TIP3 H1   HT     0.417000        1.0079           0
    6990 WTD1 716  TIP3 H2   HT     0.417000        1.0079           0
    6991 WTD1 717  TIP3 OH2  OT    -0.834000       15.9994           0
    6992 WTD1 717  TIP3 H1   HT     0.417000        1.0079           0
    6993 WTD1 717  TIP3 H2   HT     0.417000        1.0079           0
    6994 WTD1 720  TIP3 OH2  OT    -0.834000       15.9994           0
    6995 WTD1 720  TIP3 H1   HT     0.417000        1.0079           0
    6996 WTD1 720  TIP3 H2   HT     0.417000        1.0079           0
    6997 WTD1 735  TIP3 OH2  OT    -0.834000       15.9994           0
    6998 WTD1 735  TIP3 H1   HT     0.417000        1.0079           0
    6999 WTD1 735  TIP3 H2   HT     0.417000        1.0079           0
    7000 WTD1 736  TIP3 OH2  OT    -0.834000       15.9994           0
    7001 WTD1 736  TIP3 H1   HT     0.417000        1.0079           0
    7002 WTD1 736  TIP3 H2   HT     0.417000        1.0079           0
    7003 WTD1 738  TIP3 OH2  OT    -0.834000       15.9994           0
    7004 WTD1 738  TIP3 H1   HT     0.417000        1.0079           0
    7005 WTD1 738  TIP3 H2   HT     0.417000        1.0079           0
    7006 WTD1 740  TIP3 OH2  OT    -0.834000       15.9994           0
    7007 WTD1 740  TIP3 H1   HT     0.417000        1.0079           0
    7008 WTD1 740  TIP3 H2   HT     0.417000        1.0079           0
    7009 WTD1 744  TIP3 OH2  OT    -0.834000       15.9994           0
    7010 WTD1 744  TIP3 H1   HT     0.417000        1.0079           0
    7011 WTD1 744  TIP3 H2   HT     0.417000        1.0079           0
    7012 WTD1 746  TIP3 OH2  OT    -0.834000       15.9994           0
    7013 WTD1 746  TIP3 H1   HT     0.417000        1.0079           0
    7014 WTD1 746  TIP3 H2   HT     0.417000        1.0079           0
    7015 WTD1 760  TIP3 OH2  OT    -0.834000       15.9994           0
    7016 WTD1 760  TIP3 H1   HT     0.417000        1.0079           0
    7017 WTD1 760  TIP3 H2   HT     0.417000        1.0079           0
    7018 WTD1 776  TIP3 OH2  OT    -0.834000       15.9994           0
    7019 WTD1 776  TIP3 H1   HT     0.417000        1.0079           0
    7020 WTD1 776  TIP3 H2   HT     0.417000        1.0079           0
    7021 WTD1 778  TIP3 OH2  OT    -0.834000       15.9994           0
    7022 WTD1 778  TIP3 H1   HT     0.417000        1.0079           0
    7023 WTD1 778  TIP3 H2   HT     0.417000        1.0079           0
    7024 WTD1 781  TIP3 OH2  OT    -0.834000       15.9994           0
    7025 WTD1 781  TIP3 H1   HT     0.417000        1.0079           0
    7026 WTD1 781  TIP3 H2   HT     0.417000        1.0079           0
    7027 WTD1 784  TIP3 OH2  OT    -0.834000       15.9994           0
    7028 WTD1 784  TIP3 H1   HT     0.417000        1.0079           0
    7029 WTD1 784  TIP3 H2   HT     0.417000        1.0079           0
    7030 WTD1 801  TIP3 OH2  OT    -0.834000       15.9994           0
    7031 WTD1 801  TIP3 H1   HT     0.417000        1.0079           0
    7032 WTD1 801  TIP3 H2   HT     0.417000        1.0079           0
    7033 WTD1 802  TIP3 OH2  OT    -0.834000       15.9994           0
    7034 WTD1 802  TIP3 H1   HT     0.417000        1.0079           0
    7035 WTD1 802  TIP3 H2   HT     0.417000        1.0079           0
    7036 WTD1 804  TIP3 OH2  OT    -0.834000       15.9994           0
    7037 WTD1 804  TIP3 H1   HT     0.417000        1.0079           0
    7038 WTD1 804  TIP3 H2   HT     0.417000        1.0079           0
    7039 WTD1 807  TIP3 OH2  OT    -0.834000       15.9994           0
    7040 WTD1 807  TIP3 H1   HT     0.417000        1.0079           0
    7041 WTD1 807  TIP3 H2   HT     0.417000        1.0079           0
    7042 WTD1 817  TIP3 OH2  OT    -0.834000       15.9994           0
    7043 WTD1 817  TIP3 H1   HT     0.417000        1.0079           0
    7044 WTD1 817  TIP3 H2   HT     0.417000        1.0079           0
    7045 WTD1 822  TIP3 OH2  OT    -0.834000       15.9994           0
    7046 WTD1 822  TIP3 H1   HT     0.417000        1.0079           0
    7047 WTD1 822  TIP3 H2   HT     0.417000        1.0079           0
    7048 WTD1 823  TIP3 OH2  OT    -0.834000       15.9994           0
    7049 WTD1 823  TIP3 H1   HT     0.417000        1.0079           0
    7050 WTD1 823  TIP3 H2   HT     0.417000        1.0079           0
    7051 WTD1 824  TIP3 OH2  OT    -0.834000       15.9994           0
    7052 WTD1 824  TIP3 H1   HT     0.417000        1.0079           0
    7053 WTD1 824  TIP3 H2   HT     0.417000        1.0079           0
    7054 WTD1 843  TIP3 OH2  OT    -0.834000       15.9994           0
    7055 WTD1 843  TIP3 H1   HT     0.417000        1.0079           0
    7056 WTD1 843  TIP3 H2   HT     0.417000        1.0079           0
    7057 WTD1 846  TIP3 OH2  OT    -0.834000       15.9994           0
    7058 WTD1 846  TIP3 H1   HT     0.417000        1.0079           0
    7059 WTD1 846  TIP3 H2   HT     0.417000        1.0079           0
    7060 WTD1 862  TIP3 OH2  OT    -0.834000       15.9994           0
    7061 WTD1 862  TIP3 H1   HT     0.417000        1.0079           0
    7062 WTD1 862  TIP3 H2   HT     0.417000        1.0079           0
    7063 WTD1 865  TIP3 OH2  OT    -0.834000       15.9994           0
    7064 WTD1 865  TIP3 H1   HT     0.417000        1.0079           0
    7065 WTD1 865  TIP3 H2   HT     0.417000        1.0079           0
    7066 WTD1 883  TIP3 OH2  OT    -0.834000       15.9994           0
    7067 WTD1 883  TIP3 H1   HT     0.417000        1.0079           0
    7068 WTD1 883  TIP3 H2   HT     0.417000        1.0079           0
    7069 WTD1 885  TIP3 OH2  OT    -0.834000       15.9994           0
    7070 WTD1 885  TIP3 H1   HT     0.417000        1.0079           0
    7071 WTD1 885  TIP3 H2   HT     0.417000        1.0079           0
    7072 WTD1 887  TIP3 OH2  OT    -0.834000       15.9994           0
    7073 WTD1 887  TIP3 H1   HT     0.417000        1.0079           0
    7074 WTD1 887  TIP3 H2   HT     0.417000        1.0079           0
    7075 WTD1 891  TIP3 OH2  OT    -0.834000       15.9994           0
    7076 WTD1 891  TIP3 H1   HT     0.417000        1.0079           0
    7077 WTD1 891  TIP3 H2   HT     0.417000        1.0079           0
    7078 WTD1 905  TIP3 OH2  OT    -0.834000       15.9994           0
    7079 WTD1 905  TIP3 H1   HT     0.417000        1.0079           0
    7080 WTD1 905  TIP3 H2   HT     0.417000        1.0079           0
    7081 WTD1 906  TIP3 OH2  OT    -0.834000       15.9994           0
    7082 WTD1 906  TIP3 H1   HT     0.417000        1.0079           0
    7083 WTD1 906  TIP3 H2   HT     0.417000        1.0079           0
    7084 WTD1 907  TIP3 OH2  OT    -0.834000       15.9994           0
    7085 WTD1 907  TIP3 H1   HT     0.417000        1.0079           0
    7086 WTD1 907  TIP3 H2   HT     0.417000        1.0079           0
    7087 WTD1 908  TIP3 OH2  OT    -0.834000       15.9994           0
    7088 WTD1 908  TIP3 H1   HT     0.417000        1.0079           0
    7089 WTD1 908  TIP3 H2   HT     0.417000        1.0079           0
    7090 WTD1 924  TIP3 OH2  OT    -0.834000       15.9994           0
    7091 WTD1 924  TIP3 H1   HT     0.417000        1.0079           0
    7092 WTD1 924  TIP3 H2   HT     0.417000        1.0079           0
    7093 WTD1 926  TIP3 OH2  OT    -0.834000       15.9994           0
    7094 WTD1 926  TIP3 H1   HT     0.417000        1.0079           0
    7095 WTD1 926  TIP3 H2   HT     0.417000        1.0079           0
    7096 WTD1 927  TIP3 OH2  OT    -0.834000       15.9994           0
    7097 WTD1 927  TIP3 H1   HT     0.417000        1.0079           0
    7098 WTD1 927  TIP3 H2   HT     0.417000        1.0079           0
    7099 WTD1 942  TIP3 OH2  OT    -0.834000       15.9994           0
    7100 WTD1 942  TIP3 H1   HT     0.417000        1.0079           0
    7101 WTD1 942  TIP3 H2   HT     0.417000        1.0079           0
    7102 WTD1 947  TIP3 OH2  OT    -0.834000       15.9994           0
    7103 WTD1 947  TIP3 H1   HT     0.417000        1.0079           0
    7104 WTD1 947  TIP3 H2   HT     0.417000        1.0079           0
    7105 WTD1 948  TIP3 OH2  OT    -0.834000       15.9994           0
    7106 WTD1 948  TIP3 H1   HT     0.417000        1.0079           0
    7107 WTD1 948  TIP3 H2   HT     0.417000        1.0079           0
    7108 WTD1 952  TIP3 OH2  OT    -0.834000       15.9994           0
    7109 WTD1 952  TIP3 H1   HT     0.417000        1.0079           0
    7110 WTD1 952  TIP3 H2   HT     0.417000        1.0079           0
    7111 WTD1 964  TIP3 OH2  OT    -0.834000       15.9994           0
    7112 WTD1 964  TIP3 H1   HT     0.417000        1.0079           0
    7113 WTD1 964  TIP3 H2   HT     0.417000        1.0079           0
    7114 WTD1 968  TIP3 OH2  OT    -0.834000       15.9994           0
    7115 WTD1 968  TIP3 H1   HT     0.417000        1.0079           0
    7116 WTD1 968  TIP3 H2   HT     0.417000        1.0079           0
    7117 WTD1 969  TIP3 OH2  OT    -0.834000       15.9994           0
    7118 WTD1 969  TIP3 H1   HT     0.417000        1.0079           0
    7119 WTD1 969  TIP3 H2   HT     0.417000        1.0079           0
    7120 WTD1 970  TIP3 OH2  OT    -0.834000       15.9994           0
    7121 WTD1 970  TIP3 H1   HT     0.417000        1.0079           0
    7122 WTD1 970  TIP3 H2   HT     0.417000        1.0079           0
    7123 WTD1 972  TIP3 OH2  OT    -0.834000       15.9994           0
    7124 WTD1 972  TIP3 H1   HT     0.417000        1.0079           0
    7125 WTD1 972  TIP3 H2   HT     0.417000        1.0079           0
    7126 WTD1 985  TIP3 OH2  OT    -0.834000       15.9994           0
    7127 WTD1 985  TIP3 H1   HT     0.417000        1.0079           0
    7128 WTD1 985  TIP3 H2   HT     0.417000        1.0079           0
    7129 WTD1 988  TIP3 OH2  OT    -0.834000       15.9994           0
    7130 WTD1 988  TIP3 H1   HT     0.417000        1.0079           0
    7131 WTD1 988  TIP3 H2   HT     0.417000        1.0079           0
    7132 WTD1 989  TIP3 OH2  OT    -0.834000       15.9994           0
    7133 WTD1 989  TIP3 H1   HT     0.417000        1.0079           0
    7134 WTD1 989  TIP3 H2   HT     0.417000        1.0079           0
    7135 WTD1 990  TIP3 OH2  OT    -0.834000       15.9994           0
    7136 WTD1 990  TIP3 H1   HT     0.417000        1.0079           0
    7137 WTD1 990  TIP3 H2   HT     0.417000        1.0079           0
    7138 WTD1 1007 TIP3 OH2  OT    -0.834000       15.9994           0
    7139 WTD1 1007 TIP3 H1   HT     0.417000        1.0079           0
    7140 WTD1 1007 TIP3 H2   HT     0.417000        1.0079           0
    7141 WTD1 1010 TIP3 OH2  OT    -0.834000       15.9994           0
    7142 WTD1 1010 TIP3 H1   HT     0.417000        1.0079           0
    7143 WTD1 1010 TIP3 H2   HT     0.417000        1.0079           0
    7144 WTD1 1011 TIP3 OH2  OT    -0.834000       15.9994           0
    7145 WTD1 1011 TIP3 H1   HT     0.417000        1.0079           0
    7146 WTD1 1011 TIP3 H2   HT     0.417000        1.0079           0
    7147 WTD1 1018 TIP3 OH2  OT    -0.834000       15.9994           0
    7148 WTD1 1018 TIP3 H1   HT     0.417000        1.0079           0
    7149 WTD1 1018 TIP3 H2   HT     0.417000        1.0079           0
    7150 WTD1 1027 TIP3 OH2  OT    -0.834000       15.9994           0
    7151 WTD1 1027 TIP3 H1   HT     0.417000        1.0079           0
    7152 WTD1 1027 TIP3 H2   HT     0.417000        1.0079           0
    7153 WTD1 1032 TIP3 OH2  OT    -0.834000       15.9994           0
    7154 WTD1 1032 TIP3 H1   HT     0.417000        1.0079           0
    7155 WTD1 1032 TIP3 H2   HT     0.417000        1.0079           0
    7156 WTD1 1033 TIP3 OH2  OT    -0.834000       15.9994           0
    7157 WTD1 1033 TIP3 H1   HT     0.417000        1.0079           0
    7158 WTD1 1033 TIP3 H2   HT     0.417000        1.0079           0
    7159 WTD1 1051 TIP3 OH2  OT    -0.834000       15.9994           0
    7160 WTD1 1051 TIP3 H1   HT     0.417000        1.0079           0
    7161 WTD1 1051 TIP3 H2   HT     0.417000        1.0079           0
    7162 WTD1 1055 TIP3 OH2  OT    -0.834000       15.9994           0
    7163 WTD1 1055 TIP3 H1   HT     0.417000        1.0079           0
    7164 WTD1 1055 TIP3 H2   HT     0.417000        1.0079           0
    7165 WTD1 1058 TIP3 OH2  OT    -0.834000       15.9994           0
    7166 WTD1 1058 TIP3 H1   HT     0.417000        1.0079           0
    7167 WTD1 1058 TIP3 H2   HT     0.417000        1.0079           0
    7168 WTD1 1059 TIP3 OH2  OT    -0.834000       15.9994           0
    7169 WTD1 1059 TIP3 H1   HT     0.417000        1.0079           0
    7170 WTD1 1059 TIP3 H2   HT     0.417000        1.0079           0
    7171 WTD1 1072 TIP3 OH2  OT    -0.834000       15.9994           0
    7172 WTD1 1072 TIP3 H1   HT     0.417000        1.0079           0
    7173 WTD1 1072 TIP3 H2   HT     0.417000        1.0079           0
    7174 WTD1 1076 TIP3 OH2  OT    -0.834000       15.9994           0
    7175 WTD1 1076 TIP3 H1   HT     0.417000        1.0079           0
    7176 WTD1 1076 TIP3 H2   HT     0.417000        1.0079           0
    7177 WTD1 1077 TIP3 OH2  OT    -0.834000       15.9994           0
    7178 WTD1 1077 TIP3 H1   HT     0.417000        1.0079           0
    7179 WTD1 1077 TIP3 H2   HT     0.417000        1.0079           0
    7180 WTD1 1092 TIP3 OH2  OT    -0.834000       15.9994           0
    7181 WTD1 1092 TIP3 H1   HT     0.417000        1.0079           0
    7182 WTD1 1092 TIP3 H2   HT     0.417000        1.0079           0
    7183 WTD1 1096 TIP3 OH2  OT    -0.834000       15.9994           0
    7184 WTD1 1096 TIP3 H1   HT     0.417000        1.0079           0
    7185 WTD1 1096 TIP3 H2   HT     0.417000        1.0079           0
    7186 WTD1 1098 TIP3 OH2  OT    -0.834000       15.9994           0
    7187 WTD1 1098 TIP3 H1   HT     0.417000        1.0079           0
    7188 WTD1 1098 TIP3 H2   HT     0.417000        1.0079           0
    7189 WTD1 1112 TIP3 OH2  OT    -0.834000       15.9994           0
    7190 WTD1 1112 TIP3 H1   HT     0.417000        1.0079           0
    7191 WTD1 1112 TIP3 H2   HT     0.417000        1.0079           0
    7192 WTD1 1113 TIP3 OH2  OT    -0.834000       15.9994           0
    7193 WTD1 1113 TIP3 H1   HT     0.417000        1.0079           0
    7194 WTD1 1113 TIP3 H2   HT     0.417000        1.0079           0
    7195 WTD1 1115 TIP3 OH2  OT    -0.834000       15.9994           0
    7196 WTD1 1115 TIP3 H1   HT     0.417000        1.0079           0
    7197 WTD1 1115 TIP3 H2   HT     0.417000        1.0079           0
    7198 WTD1 1117 TIP3 OH2  OT    -0.834000       15.9994           0
    7199 WTD1 1117 TIP3 H1   HT     0.417000        1.0079           0
    7200 WTD1 1117 TIP3 H2   HT     0.417000        1.0079           0
    7201 WTD1 1119 TIP3 OH2  OT    -0.834000       15.9994           0
    7202 WTD1 1119 TIP3 H1   HT     0.417000        1.0079           0
    7203 WTD1 1119 TIP3 H2   HT     0.417000        1.0079           0
    7204 WTD1 1134 TIP3 OH2  OT    -0.834000       15.9994           0
    7205 WTD1 1134 TIP3 H1   HT     0.417000        1.0079           0
    7206 WTD1 1134 TIP3 H2   HT     0.417000        1.0079           0
    7207 WTD1 1135 TIP3 OH2  OT    -0.834000       15.9994           0
    7208 WTD1 1135 TIP3 H1   HT     0.417000        1.0079           0
    7209 WTD1 1135 TIP3 H2   HT     0.417000        1.0079           0
    7210 WTD1 1140 TIP3 OH2  OT    -0.834000       15.9994           0
    7211 WTD1 1140 TIP3 H1   HT     0.417000        1.0079           0
    7212 WTD1 1140 TIP3 H2   HT     0.417000        1.0079           0
    7213 WTD1 1155 TIP3 OH2  OT    -0.834000       15.9994           0
    7214 WTD1 1155 TIP3 H1   HT     0.417000        1.0079           0
    7215 WTD1 1155 TIP3 H2   HT     0.417000        1.0079           0
    7216 WTD1 1159 TIP3 OH2  OT    -0.834000       15.9994           0
    7217 WTD1 1159 TIP3 H1   HT     0.417000        1.0079           0
    7218 WTD1 1159 TIP3 H2   HT     0.417000        1.0079           0
    7219 WTD1 1162 TIP3 OH2  OT    -0.834000       15.9994           0
    7220 WTD1 1162 TIP3 H1   HT     0.417000        1.0079           0
    7221 WTD1 1162 TIP3 H2   HT     0.417000        1.0079           0
    7222 WTD1 1177 TIP3 OH2  OT    -0.834000       15.9994           0
    7223 WTD1 1177 TIP3 H1   HT     0.417000        1.0079           0
    7224 WTD1 1177 TIP3 H2   HT     0.417000        1.0079           0
    7225 WTD1 1178 TIP3 OH2  OT    -0.834000       15.9994           0
    7226 WTD1 1178 TIP3 H1   HT     0.417000        1.0079           0
    7227 WTD1 1178 TIP3 H2   HT     0.417000        1.0079           0
    7228 WTD1 1179 TIP3 OH2  OT    -0.834000       15.9994           0
    7229 WTD1 1179 TIP3 H1   HT     0.417000        1.0079           0
    7230 WTD1 1179 TIP3 H2   HT     0.417000        1.0079           0
    7231 WTD1 1180 TIP3 OH2  OT    -0.834000       15.9994           0
    7232 WTD1 1180 TIP3 H1   HT     0.417000        1.0079           0
    7233 WTD1 1180 TIP3 H2   HT     0.417000        1.0079           0
    7234 WTD1 1183 TIP3 OH2  OT    -0.834000       15.9994           0
    7235 WTD1 1183 TIP3 H1   HT     0.417000        1.0079           0
    7236 WTD1 1183 TIP3 H2   HT     0.417000        1.0079           0
    7237 WTD1 1185 TIP3 OH2  OT    -0.834000       15.9994           0
    7238 WTD1 1185 TIP3 H1   HT     0.417000        1.0079           0
    7239 WTD1 1185 TIP3 H2   HT     0.417000        1.0079           0
    7240 WTD1 1197 TIP3 OH2  OT    -0.834000       15.9994           0
    7241 WTD1 1197 TIP3 H1   HT     0.417000        1.0079           0
    7242 WTD1 1197 TIP3 H2   HT     0.417000        1.0079           0
    7243 WTD1 1200 TIP3 OH2  OT    -0.834000       15.9994           0
    7244 WTD1 1200 TIP3 H1   HT     0.417000        1.0079           0
    7245 WTD1 1200 TIP3 H2   HT     0.417000        1.0079           0
    7246 WTD1 1201 TIP3 OH2  OT    -0.834000       15.9994           0
    7247 WTD1 1201 TIP3 H1   HT     0.417000        1.0079           0
    7248 WTD1 1201 TIP3 H2   HT     0.417000        1.0079           0
    7249 WTD1 1203 TIP3 OH2  OT    -0.834000       15.9994           0
    7250 WTD1 1203 TIP3 H1   HT     0.417000        1.0079           0
    7251 WTD1 1203 TIP3 H2   HT     0.417000        1.0079           0
    7252 WTD1 1219 TIP3 OH2  OT    -0.834000       15.9994           0
    7253 WTD1 1219 TIP3 H1   HT     0.417000        1.0079           0
    7254 WTD1 1219 TIP3 H2   HT     0.417000        1.0079           0
    7255 WTD1 1220 TIP3 OH2  OT    -0.834000       15.9994           0
    7256 WTD1 1220 TIP3 H1   HT     0.417000        1.0079           0
    7257 WTD1 1220 TIP3 H2   HT     0.417000        1.0079           0
    7258 WTD1 1223 TIP3 OH2  OT    -0.834000       15.9994           0
    7259 WTD1 1223 TIP3 H1   HT     0.417000        1.0079           0
    7260 WTD1 1223 TIP3 H2   HT     0.417000        1.0079           0
    7261 WTD1 1224 TIP3 OH2  OT    -0.834000       15.9994           0
    7262 WTD1 1224 TIP3 H1   HT     0.417000        1.0079           0
    7263 WTD1 1224 TIP3 H2   HT     0.417000        1.0079           0
    7264 WTD1 1227 TIP3 OH2  OT    -0.834000       15.9994           0
    7265 WTD1 1227 TIP3 H1   HT     0.417000        1.0079           0
    7266 WTD1 1227 TIP3 H2   HT     0.417000        1.0079           0
    7267 WTD1 1240 TIP3 OH2  OT    -0.834000       15.9994           0
    7268 WTD1 1240 TIP3 H1   HT     0.417000        1.0079           0
    7269 WTD1 1240 TIP3 H2   HT     0.417000        1.0079           0
    7270 WTD1 1242 TIP3 OH2  OT    -0.834000       15.9994           0
    7271 WTD1 1242 TIP3 H1   HT     0.417000        1.0079           0
    7272 WTD1 1242 TIP3 H2   HT     0.417000        1.0079           0
    7273 WTD1 1243 TIP3 OH2  OT    -0.834000       15.9994           0
    7274 WTD1 1243 TIP3 H1   HT     0.417000        1.0079           0
    7275 WTD1 1243 TIP3 H2   HT     0.417000        1.0079           0
    7276 WTD1 1258 TIP3 OH2  OT    -0.834000       15.9994           0
    7277 WTD1 1258 TIP3 H1   HT     0.417000        1.0079           0
    7278 WTD1 1258 TIP3 H2   HT     0.417000        1.0079           0
    7279 WTD1 1263 TIP3 OH2  OT    -0.834000       15.9994           0
    7280 WTD1 1263 TIP3 H1   HT     0.417000        1.0079           0
    7281 WTD1 1263 TIP3 H2   HT     0.417000        1.0079           0
    7282 WTD1 1265 TIP3 OH2  OT    -0.834000       15.9994           0
    7283 WTD1 1265 TIP3 H1   HT     0.417000        1.0079           0
    7284 WTD1 1265 TIP3 H2   HT     0.417000        1.0079           0
    7285 WTD1 1267 TIP3 OH2  OT    -0.834000       15.9994           0
    7286 WTD1 1267 TIP3 H1   HT     0.417000        1.0079           0
    7287 WTD1 1267 TIP3 H2   HT     0.417000        1.0079           0
    7288 WTD1 1281 TIP3 OH2  OT    -0.834000       15.9994           0
    7289 WTD1 1281 TIP3 H1   HT     0.417000        1.0079           0
    7290 WTD1 1281 TIP3 H2   HT     0.417000        1.0079           0
    7291 WTD1 1283 TIP3 OH2  OT    -0.834000       15.9994           0
    7292 WTD1 1283 TIP3 H1   HT     0.417000        1.0079           0
    7293 WTD1 1283 TIP3 H2   HT     0.417000        1.0079           0
    7294 WTD1 1284 TIP3 OH2  OT    -0.834000       15.9994           0
    7295 WTD1 1284 TIP3 H1   HT     0.417000        1.0079           0
    7296 WTD1 1284 TIP3 H2   HT     0.417000        1.0079           0
    7297 WTD1 1285 TIP3 OH2  OT    -0.834000       15.9994           0
    7298 WTD1 1285 TIP3 H1   HT     0.417000        1.0079           0
    7299 WTD1 1285 TIP3 H2   HT     0.417000        1.0079           0
    7300 WTD1 1301 TIP3 OH2  OT    -0.834000       15.9994           0
    7301 WTD1 1301 TIP3 H1   HT     0.417000        1.0079           0
    7302 WTD1 1301 TIP3 H2   HT     0.417000        1.0079           0
    7303 WTD1 1303 TIP3 OH2  OT    -0.834000       15.9994           0
    7304 WTD1 1303 TIP3 H1   HT     0.417000        1.0079           0
    7305 WTD1 1303 TIP3 H2   HT     0.417000        1.0079           0
    7306 WTD1 1304 TIP3 OH2  OT    -0.834000       15.9994           0
    7307 WTD1 1304 TIP3 H1   HT     0.417000        1.0079           0
    7308 WTD1 1304 TIP3 H2   HT     0.417000        1.0079           0
    7309 WTD1 1305 TIP3 OH2  OT    -0.834000       15.9994           0
    7310 WTD1 1305 TIP3 H1   HT     0.417000        1.0079           0
    7311 WTD1 1305 TIP3 H2   HT     0.417000        1.0079           0
    7312 WTD1 1307 TIP3 OH2  OT    -0.834000       15.9994           0
    7313 WTD1 1307 TIP3 H1   HT     0.417000        1.0079           0
    7314 WTD1 1307 TIP3 H2   HT     0.417000        1.0079           0
    7315 WTD1 1322 TIP3 OH2  OT    -0.834000       15.9994           0
    7316 WTD1 1322 TIP3 H1   HT     0.417000        1.0079           0
    7317 WTD1 1322 TIP3 H2   HT     0.417000        1.0079           0
    7318 WTD1 1324 TIP3 OH2  OT    -0.834000       15.9994           0
    7319 WTD1 1324 TIP3 H1   HT     0.417000        1.0079           0
    7320 WTD1 1324 TIP3 H2   HT     0.417000        1.0079           0
    7321 WTD1 1326 TIP3 OH2  OT    -0.834000       15.9994           0
    7322 WTD1 1326 TIP3 H1   HT     0.417000        1.0079           0
    7323 WTD1 1326 TIP3 H2   HT     0.417000        1.0079           0
    7324 WTD1 1327 TIP3 OH2  OT    -0.834000       15.9994           0
    7325 WTD1 1327 TIP3 H1   HT     0.417000        1.0079           0
    7326 WTD1 1327 TIP3 H2   HT     0.417000        1.0079           0
    7327 WTD1 1328 TIP3 OH2  OT    -0.834000       15.9994           0
    7328 WTD1 1328 TIP3 H1   HT     0.417000        1.0079           0
    7329 WTD1 1328 TIP3 H2   HT     0.417000        1.0079           0
    7330 WTD1 1329 TIP3 OH2  OT    -0.834000       15.9994           0
    7331 WTD1 1329 TIP3 H1   HT     0.417000        1.0079           0
    7332 WTD1 1329 TIP3 H2   HT     0.417000        1.0079           0
    7333 WTD1 1344 TIP3 OH2  OT    -0.834000       15.9994           0
    7334 WTD1 1344 TIP3 H1   HT     0.417000        1.0079           0
    7335 WTD1 1344 TIP3 H2   HT     0.417000        1.0079           0
    7336 WTD1 1345 TIP3 OH2  OT    -0.834000       15.9994           0
    7337 WTD1 1345 TIP3 H1   HT     0.417000        1.0079           0
    7338 WTD1 1345 TIP3 H2   HT     0.417000        1.0079           0
    7339 WTD1 1346 TIP3 OH2  OT    -0.834000       15.9994           0
    7340 WTD1 1346 TIP3 H1   HT     0.417000        1.0079           0
    7341 WTD1 1346 TIP3 H2   HT     0.417000        1.0079           0
    7342 WTD1 1347 TIP3 OH2  OT    -0.834000       15.9994           0
    7343 WTD1 1347 TIP3 H1   HT     0.417000        1.0079           0
    7344 WTD1 1347 TIP3 H2   HT     0.417000        1.0079           0
    7345 WTD1 1349 TIP3 OH2  OT    -0.834000       15.9994           0
    7346 WTD1 1349 TIP3 H1   HT     0.417000        1.0079           0
    7347 WTD1 1349 TIP3 H2   HT     0.417000        1.0079           0
    7348 WTD1 1351 TIP3 OH2  OT    -0.834000       15.9994           0
    7349 WTD1 1351 TIP3 H1   HT     0.417000        1.0079           0
    7350 WTD1 1351 TIP3 H2   HT     0.417000        1.0079           0
    7351 WTD1 1352 TIP3 OH2  OT    -0.834000       15.9994           0
    7352 WTD1 1352 TIP3 H1   HT     0.417000        1.0079           0
    7353 WTD1 1352 TIP3 H2   HT     0.417000        1.0079           0
    7354 WTD1 1367 TIP3 OH2  OT    -0.834000       15.9994           0
    7355 WTD1 1367 TIP3 H1   HT     0.417000        1.0079           0
    7356 WTD1 1367 TIP3 H2   HT     0.417000        1.0079           0
    7357 WTD1 1368 TIP3 OH2  OT    -0.834000       15.9994           0
    7358 WTD1 1368 TIP3 H1   HT     0.417000        1.0079           0
    7359 WTD1 1368 TIP3 H2   HT     0.417000        1.0079           0
    7360 WTD1 1370 TIP3 OH2  OT    -0.834000       15.9994           0
    7361 WTD1 1370 TIP3 H1   HT     0.417000        1.0079           0
    7362 WTD1 1370 TIP3 H2   HT     0.417000        1.0079           0
    7363 WTD1 1371 TIP3 OH2  OT    -0.834000       15.9994           0
    7364 WTD1 1371 TIP3 H1   HT     0.417000        1.0079           0
    7365 WTD1 1371 TIP3 H2   HT     0.417000        1.0079           0
    7366 WTD1 1375 TIP3 OH2  OT    -0.834000       15.9994           0
    7367 WTD1 1375 TIP3 H1   HT     0.417000        1.0079           0
    7368 WTD1 1375 TIP3 H2   HT     0.417000        1.0079           0
    7369 WTD1 1387 TIP3 OH2  OT    -0.834000       15.9994           0
    7370 WTD1 1387 TIP3 H1   HT     0.417000        1.0079           0
    7371 WTD1 1387 TIP3 H2   HT     0.417000        1.0079           0
    7372 WTD1 1389 TIP3 OH2  OT    -0.834000       15.9994           0
    7373 WTD1 1389 TIP3 H1   HT     0.417000        1.0079           0
    7374 WTD1 1389 TIP3 H2   HT     0.417000        1.0079           0
    7375 WTD1 1393 TIP3 OH2  OT    -0.834000       15.9994           0
    7376 WTD1 1393 TIP3 H1   HT     0.417000        1.0079           0
    7377 WTD1 1393 TIP3 H2   HT     0.417000        1.0079           0
    7378 WTD1 1407 TIP3 OH2  OT    -0.834000       15.9994           0
    7379 WTD1 1407 TIP3 H1   HT     0.417000        1.0079           0
    7380 WTD1 1407 TIP3 H2   HT     0.417000        1.0079           0
    7381 WTD1 1408 TIP3 OH2  OT    -0.834000       15.9994           0
    7382 WTD1 1408 TIP3 H1   HT     0.417000        1.0079           0
    7383 WTD1 1408 TIP3 H2   HT     0.417000        1.0079           0
    7384 WTD1 1411 TIP3 OH2  OT    -0.834000       15.9994           0
    7385 WTD1 1411 TIP3 H1   HT     0.417000        1.0079           0
    7386 WTD1 1411 TIP3 H2   HT     0.417000        1.0079           0
    7387 WTD1 1412 TIP3 OH2  OT    -0.834000       15.9994           0
    7388 WTD1 1412 TIP3 H1   HT     0.417000        1.0079           0
    7389 WTD1 1412 TIP3 H2   HT     0.417000        1.0079           0
    7390 WTD1 1413 TIP3 OH2  OT    -0.834000       15.9994           0
    7391 WTD1 1413 TIP3 H1   HT     0.417000        1.0079           0
    7392 WTD1 1413 TIP3 H2   HT     0.417000        1.0079           0
    7393 WTD1 1428 TIP3 OH2  OT    -0.834000       15.9994           0
    7394 WTD1 1428 TIP3 H1   HT     0.417000        1.0079           0
    7395 WTD1 1428 TIP3 H2   HT     0.417000        1.0079           0
    7396 WTD1 1429 TIP3 OH2  OT    -0.834000       15.9994           0
    7397 WTD1 1429 TIP3 H1   HT     0.417000        1.0079           0
    7398 WTD1 1429 TIP3 H2   HT     0.417000        1.0079           0
    7399 WTD1 1431 TIP3 OH2  OT    -0.834000       15.9994           0
    7400 WTD1 1431 TIP3 H1   HT     0.417000        1.0079           0
    7401 WTD1 1431 TIP3 H2   HT     0.417000        1.0079           0
    7402 WTD1 1450 TIP3 OH2  OT    -0.834000       15.9994           0
    7403 WTD1 1450 TIP3 H1   HT     0.417000        1.0079           0
    7404 WTD1 1450 TIP3 H2   HT     0.417000        1.0079           0
    7405 WTD1 1451 TIP3 OH2  OT    -0.834000       15.9994           0
    7406 WTD1 1451 TIP3 H1   HT     0.417000        1.0079           0
    7407 WTD1 1451 TIP3 H2   HT     0.417000        1.0079           0
    7408 WTD1 1453 TIP3 OH2  OT    -0.834000       15.9994           0
    7409 WTD1 1453 TIP3 H1   HT     0.417000        1.0079           0
    7410 WTD1 1453 TIP3 H2   HT     0.417000        1.0079           0
    7411 WTD1 1454 TIP3 OH2  OT    -0.834000       15.9994           0
    7412 WTD1 1454 TIP3 H1   HT     0.417000        1.0079           0
    7413 WTD1 1454 TIP3 H2   HT     0.417000        1.0079           0
    7414 WTD1 1466 TIP3 OH2  OT    -0.834000       15.9994           0
    7415 WTD1 1466 TIP3 H1   HT     0.417000        1.0079           0
    7416 WTD1 1466 TIP3 H2   HT     0.417000        1.0079           0
    7417 WTD1 1471 TIP3 OH2  OT    -0.834000       15.9994           0
    7418 WTD1 1471 TIP3 H1   HT     0.417000        1.0079           0
    7419 WTD1 1471 TIP3 H2   HT     0.417000        1.0079           0
    7420 WTD1 1474 TIP3 OH2  OT    -0.834000       15.9994           0
    7421 WTD1 1474 TIP3 H1   HT     0.417000        1.0079           0
    7422 WTD1 1474 TIP3 H2   HT     0.417000        1.0079           0
    7423 WTD1 1492 TIP3 OH2  OT    -0.834000       15.9994           0
    7424 WTD1 1492 TIP3 H1   HT     0.417000        1.0079           0
    7425 WTD1 1492 TIP3 H2   HT     0.417000        1.0079           0
    7426 WTD1 1497 TIP3 OH2  OT    -0.834000       15.9994           0
    7427 WTD1 1497 TIP3 H1   HT     0.417000        1.0079           0
    7428 WTD1 1497 TIP3 H2   HT     0.417000        1.0079           0
    7429 WTD1 1512 TIP3 OH2  OT    -0.834000       15.9994           0
    7430 WTD1 1512 TIP3 H1   HT     0.417000        1.0079           0
    7431 WTD1 1512 TIP3 H2   HT     0.417000        1.0079           0
    7432 WTD1 1514 TIP3 OH2  OT    -0.834000       15.9994           0
    7433 WTD1 1514 TIP3 H1   HT     0.417000        1.0079           0
    7434 WTD1 1514 TIP3 H2   HT     0.417000        1.0079           0
    7435 WTD1 1515 TIP3 OH2  OT    -0.834000       15.9994           0
    7436 WTD1 1515 TIP3 H1   HT     0.417000        1.0079           0
    7437 WTD1 1515 TIP3 H2   HT     0.417000        1.0079           0
    7438 WTD1 1519 TIP3 OH2  OT    -0.834000       15.9994           0
    7439 WTD1 1519 TIP3 H1   HT     0.417000        1.0079           0
    7440 WTD1 1519 TIP3 H2   HT     0.417000        1.0079           0
    7441 WTD1 1531 TIP3 OH2  OT    -0.834000       15.9994           0
    7442 WTD1 1531 TIP3 H1   HT     0.417000        1.0079           0
    7443 WTD1 1531 TIP3 H2   HT     0.417000        1.0079           0
    7444 WTD1 1534 TIP3 OH2  OT    -0.834000       15.9994           0
    7445 WTD1 1534 TIP3 H1   HT     0.417000        1.0079           0
    7446 WTD1 1534 TIP3 H2   HT     0.417000        1.0079           0
    7447 WTD1 1536 TIP3 OH2  OT    -0.834000       15.9994           0
    7448 WTD1 1536 TIP3 H1   HT     0.417000        1.0079           0
    7449 WTD1 1536 TIP3 H2   HT     0.417000        1.0079           0
    7450 WTD1 1537 TIP3 OH2  OT    -0.834000       15.9994           0
    7451 WTD1 1537 TIP3 H1   HT     0.417000        1.0079           0
    7452 WTD1 1537 TIP3 H2   HT     0.417000        1.0079           0
    7453 WTD1 1538 TIP3 OH2  OT    -0.834000       15.9994           0
    7454 WTD1 1538 TIP3 H1   HT     0.417000        1.0079           0
    7455 WTD1 1538 TIP3 H2   HT     0.417000        1.0079           0
    7456 WTD1 1551 TIP3 OH2  OT    -0.834000       15.9994           0
    7457 WTD1 1551 TIP3 H1   HT     0.417000        1.0079           0
    7458 WTD1 1551 TIP3 H2   HT     0.417000        1.0079           0
    7459 WTD1 1552 TIP3 OH2  OT    -0.834000       15.9994           0
    7460 WTD1 1552 TIP3 H1   HT     0.417000        1.0079           0
    7461 WTD1 1552 TIP3 H2   HT     0.417000        1.0079           0
    7462 WTD1 1577 TIP3 OH2  OT    -0.834000       15.9994           0
    7463 WTD1 1577 TIP3 H1   HT     0.417000        1.0079           0
    7464 WTD1 1577 TIP3 H2   HT     0.417000        1.0079           0
    7465 WTD1 1578 TIP3 OH2  OT    -0.834000       15.9994           0
    7466 WTD1 1578 TIP3 H1   HT     0.417000        1.0079           0
    7467 WTD1 1578 TIP3 H2   HT     0.417000        1.0079           0
    7468 WTD1 1583 TIP3 OH2  OT    -0.834000       15.9994           0
    7469 WTD1 1583 TIP3 H1   HT     0.417000        1.0079           0
    7470 WTD1 1583 TIP3 H2   HT     0.417000        1.0079           0
    7471 WTD1 1599 TIP3 OH2  OT    -0.834000       15.9994           0
    7472 WTD1 1599 TIP3 H1   HT     0.417000        1.0079           0
    7473 WTD1 1599 TIP3 H2   HT     0.417000        1.0079           0
    7474 WTD1 1605 TIP3 OH2  OT    -0.834000       15.9994           0
    7475 WTD1 1605 TIP3 H1   HT     0.417000        1.0079           0
    7476 WTD1 1605 TIP3 H2   HT     0.417000        1.0079           0
    7477 WTD1 1616 TIP3 OH2  OT    -0.834000       15.9994           0
    7478 WTD1 1616 TIP3 H1   HT     0.417000        1.0079           0
    7479 WTD1 1616 TIP3 H2   HT     0.417000        1.0079           0
    7480 WTD1 1617 TIP3 OH2  OT    -0.834000       15.9994           0
    7481 WTD1 1617 TIP3 H1   HT     0.417000        1.0079           0
    7482 WTD1 1617 TIP3 H2   HT     0.417000        1.0079           0
    7483 WTD1 1621 TIP3 OH2  OT    -0.834000       15.9994           0
    7484 WTD1 1621 TIP3 H1   HT     0.417000        1.0079           0
    7485 WTD1 1621 TIP3 H2   HT     0.417000        1.0079           0
    7486 WTD1 1622 TIP3 OH2  OT    -0.834000       15.9994           0
    7487 WTD1 1622 TIP3 H1   HT     0.417000        1.0079           0
    7488 WTD1 1622 TIP3 H2   HT     0.417000        1.0079           0
    7489 WTD1 1638 TIP3 OH2  OT    -0.834000       15.9994           0
    7490 WTD1 1638 TIP3 H1   HT     0.417000        1.0079           0
    7491 WTD1 1638 TIP3 H2   HT     0.417000        1.0079           0
    7492 WTD1 1639 TIP3 OH2  OT    -0.834000       15.9994           0
    7493 WTD1 1639 TIP3 H1   HT     0.417000        1.0079           0
    7494 WTD1 1639 TIP3 H2   HT     0.417000        1.0079           0
    7495 WTD1 1640 TIP3 OH2  OT    -0.834000       15.9994           0
    7496 WTD1 1640 TIP3 H1   HT     0.417000        1.0079           0
    7497 WTD1 1640 TIP3 H2   HT     0.417000        1.0079           0
    7498 WTD1 1645 TIP3 OH2  OT    -0.834000       15.9994           0
    7499 WTD1 1645 TIP3 H1   HT     0.417000        1.0079           0
    7500 WTD1 1645 TIP3 H2   HT     0.417000        1.0079           0
    7501 WTD1 1656 TIP3 OH2  OT    -0.834000       15.9994           0
    7502 WTD1 1656 TIP3 H1   HT     0.417000        1.0079           0
    7503 WTD1 1656 TIP3 H2   HT     0.417000        1.0079           0
    7504 WTD1 1658 TIP3 OH2  OT    -0.834000       15.9994           0
    7505 WTD1 1658 TIP3 H1   HT     0.417000        1.0079           0
    7506 WTD1 1658 TIP3 H2   HT     0.417000        1.0079           0
    7507 WTD1 1659 TIP3 OH2  OT    -0.834000       15.9994           0
    7508 WTD1 1659 TIP3 H1   HT     0.417000        1.0079           0
    7509 WTD1 1659 TIP3 H2   HT     0.417000        1.0079           0
    7510 WTD1 1661 TIP3 OH2  OT    -0.834000       15.9994           0
    7511 WTD1 1661 TIP3 H1   HT     0.417000        1.0079           0
    7512 WTD1 1661 TIP3 H2   HT     0.417000        1.0079           0
    7513 WTD1 1665 TIP3 OH2  OT    -0.834000       15.9994           0
    7514 WTD1 1665 TIP3 H1   HT     0.417000        1.0079           0
    7515 WTD1 1665 TIP3 H2   HT     0.417000        1.0079           0
    7516 WTD1 1681 TIP3 OH2  OT    -0.834000       15.9994           0
    7517 WTD1 1681 TIP3 H1   HT     0.417000        1.0079           0
    7518 WTD1 1681 TIP3 H2   HT     0.417000        1.0079           0
    7519 WTD1 1684 TIP3 OH2  OT    -0.834000       15.9994           0
    7520 WTD1 1684 TIP3 H1   HT     0.417000        1.0079           0
    7521 WTD1 1684 TIP3 H2   HT     0.417000        1.0079           0
    7522 WTD1 1688 TIP3 OH2  OT    -0.834000       15.9994           0
    7523 WTD1 1688 TIP3 H1   HT     0.417000        1.0079           0
    7524 WTD1 1688 TIP3 H2   HT     0.417000        1.0079           0
    7525 WTD1 1701 TIP3 OH2  OT    -0.834000       15.9994           0
    7526 WTD1 1701 TIP3 H1   HT     0.417000        1.0079           0
    7527 WTD1 1701 TIP3 H2   HT     0.417000        1.0079           0
    7528 WTD1 1702 TIP3 OH2  OT    -0.834000       15.9994           0
    7529 WTD1 1702 TIP3 H1   HT     0.417000        1.0079           0
    7530 WTD1 1702 TIP3 H2   HT     0.417000        1.0079           0
    7531 WTD1 1704 TIP3 OH2  OT    -0.834000       15.9994           0
    7532 WTD1 1704 TIP3 H1   HT     0.417000        1.0079           0
    7533 WTD1 1704 TIP3 H2   HT     0.417000        1.0079           0
    7534 WTD1 1707 TIP3 OH2  OT    -0.834000       15.9994           0
    7535 WTD1 1707 TIP3 H1   HT     0.417000        1.0079           0
    7536 WTD1 1707 TIP3 H2   HT     0.417000        1.0079           0
    7537 WTD1 1708 TIP3 OH2  OT    -0.834000       15.9994           0
    7538 WTD1 1708 TIP3 H1   HT     0.417000        1.0079           0
    7539 WTD1 1708 TIP3 H2   HT     0.417000        1.0079           0
    7540 WTD1 1725 TIP3 OH2  OT    -0.834000       15.9994           0
    7541 WTD1 1725 TIP3 H1   HT     0.417000        1.0079           0
    7542 WTD1 1725 TIP3 H2   HT     0.417000        1.0079           0
    7543 WTD1 1728 TIP3 OH2  OT    -0.834000       15.9994           0
    7544 WTD1 1728 TIP3 H1   HT     0.417000        1.0079           0
    7545 WTD1 1728 TIP3 H2   HT     0.417000        1.0079           0
    7546 WTD1 1744 TIP3 OH2  OT    -0.834000       15.9994           0
    7547 WTD1 1744 TIP3 H1   HT     0.417000        1.0079           0
    7548 WTD1 1744 TIP3 H2   HT     0.417000        1.0079           0
    7549 WTD1 1747 TIP3 OH2  OT    -0.834000       15.9994           0
    7550 WTD1 1747 TIP3 H1   HT     0.417000        1.0079           0
    7551 WTD1 1747 TIP3 H2   HT     0.417000        1.0079           0
    7552 WTD1 1748 TIP3 OH2  OT    -0.834000       15.9994           0
    7553 WTD1 1748 TIP3 H1   HT     0.417000        1.0079           0
    7554 WTD1 1748 TIP3 H2   HT     0.417000        1.0079           0
    7555 WTD1 1750 TIP3 OH2  OT    -0.834000       15.9994           0
    7556 WTD1 1750 TIP3 H1   HT     0.417000        1.0079           0
    7557 WTD1 1750 TIP3 H2   HT     0.417000        1.0079           0
    7558 WTD1 1751 TIP3 OH2  OT    -0.834000       15.9994           0
    7559 WTD1 1751 TIP3 H1   HT     0.417000        1.0079           0
    7560 WTD1 1751 TIP3 H2   HT     0.417000        1.0079           0
    7561 WTD1 1764 TIP3 OH2  OT    -0.834000       15.9994           0
    7562 WTD1 1764 TIP3 H1   HT     0.417000        1.0079           0
    7563 WTD1 1764 TIP3 H2   HT     0.417000        1.0079           0
    7564 WTD1 1766 TIP3 OH2  OT    -0.834000       15.9994           0
    7565 WTD1 1766 TIP3 H1   HT     0.417000        1.0079           0
    7566 WTD1 1766 TIP3 H2   HT     0.417000        1.0079           0
    7567 WTD1 1767 TIP3 OH2  OT    -0.834000       15.9994           0
    7568 WTD1 1767 TIP3 H1   HT     0.417000        1.0079           0
    7569 WTD1 1767 TIP3 H2   HT     0.417000        1.0079           0
    7570 WTD1 1768 TIP3 OH2  OT    -0.834000       15.9994           0
    7571 WTD1 1768 TIP3 H1   HT     0.417000        1.0079           0
    7572 WTD1 1768 TIP3 H2   HT     0.417000        1.0079           0
    7573 WTD1 1771 TIP3 OH2  OT    -0.834000       15.9994           0
    7574 WTD1 1771 TIP3 H1   HT     0.417000        1.0079           0
    7575 WTD1 1771 TIP3 H2   HT     0.417000        1.0079           0
    7576 WTD1 1784 TIP3 OH2  OT    -0.834000       15.9994           0
    7577 WTD1 1784 TIP3 H1   HT     0.417000        1.0079           0
    7578 WTD1 1784 TIP3 H2   HT     0.417000        1.0079           0
    7579 WTD1 1789 TIP3 OH2  OT    -0.834000       15.9994           0
    7580 WTD1 1789 TIP3 H1   HT     0.417000        1.0079           0
    7581 WTD1 1789 TIP3 H2   HT     0.417000        1.0079           0
    7582 WTD1 1791 TIP3 OH2  OT    -0.834000       15.9994           0
    7583 WTD1 1791 TIP3 H1   HT     0.417000        1.0079           0
    7584 WTD1 1791 TIP3 H2   HT     0.417000        1.0079           0
    7585 WTD1 1792 TIP3 OH2  OT    -0.834000       15.9994           0
    7586 WTD1 1792 TIP3 H1   HT     0.417000        1.0079           0
    7587 WTD1 1792 TIP3 H2   HT     0.417000        1.0079           0
    7588 WTD1 1810 TIP3 OH2  OT    -0.834000       15.9994           0
    7589 WTD1 1810 TIP3 H1   HT     0.417000        1.0079           0
    7590 WTD1 1810 TIP3 H2   HT     0.417000        1.0079           0
    7591 WTD1 1811 TIP3 OH2  OT    -0.834000       15.9994           0
    7592 WTD1 1811 TIP3 H1   HT     0.417000        1.0079           0
    7593 WTD1 1811 TIP3 H2   HT     0.417000        1.0079           0
    7594 WTD1 1824 TIP3 OH2  OT    -0.834000       15.9994           0
    7595 WTD1 1824 TIP3 H1   HT     0.417000        1.0079           0
    7596 WTD1 1824 TIP3 H2   HT     0.417000        1.0079           0
    7597 WTD1 1826 TIP3 OH2  OT    -0.834000       15.9994           0
    7598 WTD1 1826 TIP3 H1   HT     0.417000        1.0079           0
    7599 WTD1 1826 TIP3 H2   HT     0.417000        1.0079           0
    7600 WTD1 1829 TIP3 OH2  OT    -0.834000       15.9994           0
    7601 WTD1 1829 TIP3 H1   HT     0.417000        1.0079           0
    7602 WTD1 1829 TIP3 H2   HT     0.417000        1.0079           0
    7603 WTD1 1830 TIP3 OH2  OT    -0.834000       15.9994           0
    7604 WTD1 1830 TIP3 H1   HT     0.417000        1.0079           0
    7605 WTD1 1830 TIP3 H2   HT     0.417000        1.0079           0
    7606 WTD1 1831 TIP3 OH2  OT    -0.834000       15.9994           0
    7607 WTD1 1831 TIP3 H1   HT     0.417000        1.0079           0
    7608 WTD1 1831 TIP3 H2   HT     0.417000        1.0079           0
    7609 WTD1 1837 TIP3 OH2  OT    -0.834000       15.9994           0
    7610 WTD1 1837 TIP3 H1   HT     0.417000        1.0079           0
    7611 WTD1 1837 TIP3 H2   HT     0.417000        1.0079           0
    7612 WTD1 1847 TIP3 OH2  OT    -0.834000       15.9994           0
    7613 WTD1 1847 TIP3 H1   HT     0.417000        1.0079           0
    7614 WTD1 1847 TIP3 H2   HT     0.417000        1.0079           0
    7615 WTD1 1850 TIP3 OH2  OT    -0.834000       15.9994           0
    7616 WTD1 1850 TIP3 H1   HT     0.417000        1.0079           0
    7617 WTD1 1850 TIP3 H2   HT     0.417000        1.0079           0
    7618 WTD1 1851 TIP3 OH2  OT    -0.834000       15.9994           0
    7619 WTD1 1851 TIP3 H1   HT     0.417000        1.0079           0
    7620 WTD1 1851 TIP3 H2   HT     0.417000        1.0079           0
    7621 WTD1 1852 TIP3 OH2  OT    -0.834000       15.9994           0
    7622 WTD1 1852 TIP3 H1   HT     0.417000        1.0079           0
    7623 WTD1 1852 TIP3 H2   HT     0.417000        1.0079           0
    7624 WTD1 1853 TIP3 OH2  OT    -0.834000       15.9994           0
    7625 WTD1 1853 TIP3 H1   HT     0.417000        1.0079           0
    7626 WTD1 1853 TIP3 H2   HT     0.417000        1.0079           0
    7627 WTD1 1854 TIP3 OH2  OT    -0.834000       15.9994           0
    7628 WTD1 1854 TIP3 H1   HT     0.417000        1.0079           0
    7629 WTD1 1854 TIP3 H2   HT     0.417000        1.0079           0
    7630 WTD1 1855 TIP3 OH2  OT    -0.834000       15.9994           0
    7631 WTD1 1855 TIP3 H1   HT     0.417000        1.0079           0
    7632 WTD1 1855 TIP3 H2   HT     0.417000        1.0079           0
    7633 WTD1 1856 TIP3 OH2  OT    -0.834000       15.9994           0
    7634 WTD1 1856 TIP3 H1   HT     0.417000        1.0079           0
    7635 WTD1 1856 TIP3 H2   HT     0.417000        1.0079           0
    7636 WTD1 1870 TIP3 OH2  OT    -0.834000       15.9994           0
    7637 WTD1 1870 TIP3 H1   HT     0.417000        1.0079           0
    7638 WTD1 1870 TIP3 H2   HT     0.417000        1.0079           0
    7639 WTD1 1871 TIP3 OH2  OT    -0.834000       15.9994           0
    7640 WTD1 1871 TIP3 H1   HT     0.417000        1.0079           0
    7641 WTD1 1871 TIP3 H2   HT     0.417000        1.0079           0
    7642 WTD1 1872 TIP3 OH2  OT    -0.834000       15.9994           0
    7643 WTD1 1872 TIP3 H1   HT     0.417000        1.0079           0
    7644 WTD1 1872 TIP3 H2   HT     0.417000        1.0079           0
    7645 WTD1 1873 TIP3 OH2  OT    -0.834000       15.9994           0
    7646 WTD1 1873 TIP3 H1   HT     0.417000        1.0079           0
    7647 WTD1 1873 TIP3 H2   HT     0.417000        1.0079           0
    7648 WTD1 1875 TIP3 OH2  OT    -0.834000       15.9994           0
    7649 WTD1 1875 TIP3 H1   HT     0.417000        1.0079           0
    7650 WTD1 1875 TIP3 H2   HT     0.417000        1.0079           0
    7651 WTD1 1881 TIP3 OH2  OT    -0.834000       15.9994           0
    7652 WTD1 1881 TIP3 H1   HT     0.417000        1.0079           0
    7653 WTD1 1881 TIP3 H2   HT     0.417000        1.0079           0
    7654 WTD1 1885 TIP3 OH2  OT    -0.834000       15.9994           0
    7655 WTD1 1885 TIP3 H1   HT     0.417000        1.0079           0
    7656 WTD1 1885 TIP3 H2   HT     0.417000        1.0079           0
    7657 WTD1 1891 TIP3 OH2  OT    -0.834000       15.9994           0
    7658 WTD1 1891 TIP3 H1   HT     0.417000        1.0079           0
    7659 WTD1 1891 TIP3 H2   HT     0.417000        1.0079           0
    7660 WTD1 1892 TIP3 OH2  OT    -0.834000       15.9994           0
    7661 WTD1 1892 TIP3 H1   HT     0.417000        1.0079           0
    7662 WTD1 1892 TIP3 H2   HT     0.417000        1.0079           0
    7663 WTD1 1896 TIP3 OH2  OT    -0.834000       15.9994           0
    7664 WTD1 1896 TIP3 H1   HT     0.417000        1.0079           0
    7665 WTD1 1896 TIP3 H2   HT     0.417000        1.0079           0
    7666 WTD1 1911 TIP3 OH2  OT    -0.834000       15.9994           0
    7667 WTD1 1911 TIP3 H1   HT     0.417000        1.0079           0
    7668 WTD1 1911 TIP3 H2   HT     0.417000        1.0079           0
    7669 WTD1 1912 TIP3 OH2  OT    -0.834000       15.9994           0
    7670 WTD1 1912 TIP3 H1   HT     0.417000        1.0079           0
    7671 WTD1 1912 TIP3 H2   HT     0.417000        1.0079           0
    7672 WTD1 1913 TIP3 OH2  OT    -0.834000       15.9994           0
    7673 WTD1 1913 TIP3 H1   HT     0.417000        1.0079           0
    7674 WTD1 1913 TIP3 H2   HT     0.417000        1.0079           0
    7675 WTD1 1915 TIP3 OH2  OT    -0.834000       15.9994           0
    7676 WTD1 1915 TIP3 H1   HT     0.417000        1.0079           0
    7677 WTD1 1915 TIP3 H2   HT     0.417000        1.0079           0
    7678 WTD1 1917 TIP3 OH2  OT    -0.834000       15.9994           0
    7679 WTD1 1917 TIP3 H1   HT     0.417000        1.0079           0
    7680 WTD1 1917 TIP3 H2   HT     0.417000        1.0079           0
    7681 WTD1 1918 TIP3 OH2  OT    -0.834000       15.9994           0
    7682 WTD1 1918 TIP3 H1   HT     0.417000        1.0079           0
    7683 WTD1 1918 TIP3 H2   HT     0.417000        1.0079           0
    7684 WTD1 1931 TIP3 OH2  OT    -0.834000       15.9994           0
    7685 WTD1 1931 TIP3 H1   HT     0.417000        1.0079           0
    7686 WTD1 1931 TIP3 H2   HT     0.417000        1.0079           0
    7687 WTD1 1934 TIP3 OH2  OT    -0.834000       15.9994           0
    7688 WTD1 1934 TIP3 H1   HT     0.417000        1.0079           0
    7689 WTD1 1934 TIP3 H2   HT     0.417000        1.0079           0
    7690 WTD1 1935 TIP3 OH2  OT    -0.834000       15.9994           0
    7691 WTD1 1935 TIP3 H1   HT     0.417000        1.0079           0
    7692 WTD1 1935 TIP3 H2   HT     0.417000        1.0079           0
    7693 WTD1 1950 TIP3 OH2  OT    -0.834000       15.9994           0
    7694 WTD1 1950 TIP3 H1   HT     0.417000        1.0079           0
    7695 WTD1 1950 TIP3 H2   HT     0.417000        1.0079           0
    7696 WTD1 1952 TIP3 OH2  OT    -0.834000       15.9994           0
    7697 WTD1 1952 TIP3 H1   HT     0.417000        1.0079           0
    7698 WTD1 1952 TIP3 H2   HT     0.417000        1.0079           0
    7699 WTD1 1953 TIP3 OH2  OT    -0.834000       15.9994           0
    7700 WTD1 1953 TIP3 H1   HT     0.417000        1.0079           0
    7701 WTD1 1953 TIP3 H2   HT     0.417000        1.0079           0
    7702 WTD1 1954 TIP3 OH2  OT    -0.834000       15.9994           0
    7703 WTD1 1954 TIP3 H1   HT     0.417000        1.0079           0
    7704 WTD1 1954 TIP3 H2   HT     0.417000        1.0079           0
    7705 WTD1 1955 TIP3 OH2  OT    -0.834000       15.9994           0
    7706 WTD1 1955 TIP3 H1   HT     0.417000        1.0079           0
    7707 WTD1 1955 TIP3 H2   HT     0.417000        1.0079           0
    7708 WTD1 1976 TIP3 OH2  OT    -0.834000       15.9994           0
    7709 WTD1 1976 TIP3 H1   HT     0.417000        1.0079           0
    7710 WTD1 1976 TIP3 H2   HT     0.417000        1.0079           0
    7711 WTD1 1977 TIP3 OH2  OT    -0.834000       15.9994           0
    7712 WTD1 1977 TIP3 H1   HT     0.417000        1.0079           0
    7713 WTD1 1977 TIP3 H2   HT     0.417000        1.0079           0
    7714 WTD1 1978 TIP3 OH2  OT    -0.834000       15.9994           0
    7715 WTD1 1978 TIP3 H1   HT     0.417000        1.0079           0
    7716 WTD1 1978 TIP3 H2   HT     0.417000        1.0079           0
    7717 WTD1 1993 TIP3 OH2  OT    -0.834000       15.9994           0
    7718 WTD1 1993 TIP3 H1   HT     0.417000        1.0079           0
    7719 WTD1 1993 TIP3 H2   HT     0.417000        1.0079           0
    7720 WTD1 1998 TIP3 OH2  OT    -0.834000       15.9994           0
    7721 WTD1 1998 TIP3 H1   HT     0.417000        1.0079           0
    7722 WTD1 1998 TIP3 H2   HT     0.417000        1.0079           0
    7723 WTD1 2000 TIP3 OH2  OT    -0.834000       15.9994           0
    7724 WTD1 2000 TIP3 H1   HT     0.417000        1.0079           0
    7725 WTD1 2000 TIP3 H2   HT     0.417000        1.0079           0
    7726 WTD1 2002 TIP3 OH2  OT    -0.834000       15.9994           0
    7727 WTD1 2002 TIP3 H1   HT     0.417000        1.0079           0
    7728 WTD1 2002 TIP3 H2   HT     0.417000        1.0079           0
    7729 WTD1 2014 TIP3 OH2  OT    -0.834000       15.9994           0
    7730 WTD1 2014 TIP3 H1   HT     0.417000        1.0079           0
    7731 WTD1 2014 TIP3 H2   HT     0.417000        1.0079           0
    7732 WTD1 2016 TIP3 OH2  OT    -0.834000       15.9994           0
    7733 WTD1 2016 TIP3 H1   HT     0.417000        1.0079           0
    7734 WTD1 2016 TIP3 H2   HT     0.417000        1.0079           0
    7735 WTD1 2018 TIP3 OH2  OT    -0.834000       15.9994           0
    7736 WTD1 2018 TIP3 H1   HT     0.417000        1.0079           0
    7737 WTD1 2018 TIP3 H2   HT     0.417000        1.0079           0
    7738 WTD1 2037 TIP3 OH2  OT    -0.834000       15.9994           0
    7739 WTD1 2037 TIP3 H1   HT     0.417000        1.0079           0
    7740 WTD1 2037 TIP3 H2   HT     0.417000        1.0079           0
    7741 WTD1 2038 TIP3 OH2  OT    -0.834000       15.9994           0
    7742 WTD1 2038 TIP3 H1   HT     0.417000        1.0079           0
    7743 WTD1 2038 TIP3 H2   HT     0.417000        1.0079           0
    7744 WTD1 2039 TIP3 OH2  OT    -0.834000       15.9994           0
    7745 WTD1 2039 TIP3 H1   HT     0.417000        1.0079           0
    7746 WTD1 2039 TIP3 H2   HT     0.417000        1.0079           0
    7747 WTD1 2040 TIP3 OH2  OT    -0.834000       15.9994           0
    7748 WTD1 2040 TIP3 H1   HT     0.417000        1.0079           0
    7749 WTD1 2040 TIP3 H2   HT     0.417000        1.0079           0
    7750 WTD1 2043 TIP3 OH2  OT    -0.834000       15.9994           0
    7751 WTD1 2043 TIP3 H1   HT     0.417000        1.0079           0
    7752 WTD1 2043 TIP3 H2   HT     0.417000        1.0079           0
    7753 WTD1 2059 TIP3 OH2  OT    -0.834000       15.9994           0
    7754 WTD1 2059 TIP3 H1   HT     0.417000        1.0079           0
    7755 WTD1 2059 TIP3 H2   HT     0.417000        1.0079           0
    7756 WTD1 2060 TIP3 OH2  OT    -0.834000       15.9994           0
    7757 WTD1 2060 TIP3 H1   HT     0.417000        1.0079           0
    7758 WTD1 2060 TIP3 H2   HT     0.417000        1.0079           0
    7759 WTD1 2063 TIP3 OH2  OT    -0.834000       15.9994           0
    7760 WTD1 2063 TIP3 H1   HT     0.417000        1.0079           0
    7761 WTD1 2063 TIP3 H2   HT     0.417000        1.0079           0
    7762 WTD1 2064 TIP3 OH2  OT    -0.834000       15.9994           0
    7763 WTD1 2064 TIP3 H1   HT     0.417000        1.0079           0
    7764 WTD1 2064 TIP3 H2   HT     0.417000        1.0079           0
    7765 WTD1 2079 TIP3 OH2  OT    -0.834000       15.9994           0
    7766 WTD1 2079 TIP3 H1   HT     0.417000        1.0079           0
    7767 WTD1 2079 TIP3 H2   HT     0.417000        1.0079           0
    7768 WTD1 2081 TIP3 OH2  OT    -0.834000       15.9994           0
    7769 WTD1 2081 TIP3 H1   HT     0.417000        1.0079           0
    7770 WTD1 2081 TIP3 H2   HT     0.417000        1.0079           0
    7771 WTD1 2082 TIP3 OH2  OT    -0.834000       15.9994           0
    7772 WTD1 2082 TIP3 H1   HT     0.417000        1.0079           0
    7773 WTD1 2082 TIP3 H2   HT     0.417000        1.0079           0
    7774 WTD1 2084 TIP3 OH2  OT    -0.834000       15.9994           0
    7775 WTD1 2084 TIP3 H1   HT     0.417000        1.0079           0
    7776 WTD1 2084 TIP3 H2   HT     0.417000        1.0079           0
    7777 WTD1 2104 TIP3 OH2  OT    -0.834000       15.9994           0
    7778 WTD1 2104 TIP3 H1   HT     0.417000        1.0079           0
    7779 WTD1 2104 TIP3 H2   HT     0.417000        1.0079           0
    7780 WTD1 2122 TIP3 OH2  OT    -0.834000       15.9994           0
    7781 WTD1 2122 TIP3 H1   HT     0.417000        1.0079           0
    7782 WTD1 2122 TIP3 H2   HT     0.417000        1.0079           0
    7783 WTD1 2123 TIP3 OH2  OT    -0.834000       15.9994           0
    7784 WTD1 2123 TIP3 H1   HT     0.417000        1.0079           0
    7785 WTD1 2123 TIP3 H2   HT     0.417000        1.0079           0
    7786 WTD1 2124 TIP3 OH2  OT    -0.834000       15.9994           0
    7787 WTD1 2124 TIP3 H1   HT     0.417000        1.0079           0
    7788 WTD1 2124 TIP3 H2   HT     0.417000        1.0079           0
    7789 WTD1 2126 TIP3 OH2  OT    -0.834000       15.9994           0
    7790 WTD1 2126 TIP3 H1   HT     0.417000        1.0079           0
    7791 WTD1 2126 TIP3 H2   HT     0.417000        1.0079           0
    7792 WTD1 2143 TIP3 OH2  OT    -0.834000       15.9994           0
    7793 WTD1 2143 TIP3 H1   HT     0.417000        1.0079           0
    7794 WTD1 2143 TIP3 H2   HT     0.417000        1.0079           0
    7795 WTD1 2148 TIP3 OH2  OT    -0.834000       15.9994           0
    7796 WTD1 2148 TIP3 H1   HT     0.417000        1.0079           0
    7797 WTD1 2148 TIP3 H2   HT     0.417000        1.0079           0
    7798 WTD1 2165 TIP3 OH2  OT    -0.834000       15.9994           0
    7799 WTD1 2165 TIP3 H1   HT     0.417000        1.0079           0
    7800 WTD1 2165 TIP3 H2   HT     0.417000        1.0079           0
    7801 WTD1 2166 TIP3 OH2  OT    -0.834000       15.9994           0
    7802 WTD1 2166 TIP3 H1   HT     0.417000        1.0079           0
    7803 WTD1 2166 TIP3 H2   HT     0.417000        1.0079           0
    7804 WTD1 2167 TIP3 OH2  OT    -0.834000       15.9994           0
    7805 WTD1 2167 TIP3 H1   HT     0.417000        1.0079           0
    7806 WTD1 2167 TIP3 H2   HT     0.417000        1.0079           0
    7807 WTD1 2168 TIP3 OH2  OT    -0.834000       15.9994           0
    7808 WTD1 2168 TIP3 H1   HT     0.417000        1.0079           0
    7809 WTD1 2168 TIP3 H2   HT     0.417000        1.0079           0
    7810 WTD1 2170 TIP3 OH2  OT    -0.834000       15.9994           0
    7811 WTD1 2170 TIP3 H1   HT     0.417000        1.0079           0
    7812 WTD1 2170 TIP3 H2   HT     0.417000        1.0079           0
    7813 WTD1 2183 TIP3 OH2  OT    -0.834000       15.9994           0
    7814 WTD1 2183 TIP3 H1   HT     0.417000        1.0079           0
    7815 WTD1 2183 TIP3 H2   HT     0.417000        1.0079           0
    7816 WTD1 2187 TIP3 OH2  OT    -0.834000       15.9994           0
    7817 WTD1 2187 TIP3 H1   HT     0.417000        1.0079           0
    7818 WTD1 2187 TIP3 H2   HT     0.417000        1.0079           0
    7819 WTD1 2188 TIP3 OH2  OT    -0.834000       15.9994           0
    7820 WTD1 2188 TIP3 H1   HT     0.417000        1.0079           0
    7821 WTD1 2188 TIP3 H2   HT     0.417000        1.0079           0
    7822 WTD1 2190 TIP3 OH2  OT    -0.834000       15.9994           0
    7823 WTD1 2190 TIP3 H1   HT     0.417000        1.0079           0
    7824 WTD1 2190 TIP3 H2   HT     0.417000        1.0079           0
    7825 WTD1 2205 TIP3 OH2  OT    -0.834000       15.9994           0
    7826 WTD1 2205 TIP3 H1   HT     0.417000        1.0079           0
    7827 WTD1 2205 TIP3 H2   HT     0.417000        1.0079           0
    7828 WTD1 2207 TIP3 OH2  OT    -0.834000       15.9994           0
    7829 WTD1 2207 TIP3 H1   HT     0.417000        1.0079           0
    7830 WTD1 2207 TIP3 H2   HT     0.417000        1.0079           0
    7831 WTD1 2208 TIP3 OH2  OT    -0.834000       15.9994           0
    7832 WTD1 2208 TIP3 H1   HT     0.417000        1.0079           0
    7833 WTD1 2208 TIP3 H2   HT     0.417000        1.0079           0
    7834 WTD1 2209 TIP3 OH2  OT    -0.834000       15.9994           0
    7835 WTD1 2209 TIP3 H1   HT     0.417000        1.0079           0
    7836 WTD1 2209 TIP3 H2   HT     0.417000        1.0079           0
    7837 WTD1 2223 TIP3 OH2  OT    -0.834000       15.9994           0
    7838 WTD1 2223 TIP3 H1   HT     0.417000        1.0079           0
    7839 WTD1 2223 TIP3 H2   HT     0.417000        1.0079           0
    7840 WTD1 2227 TIP3 OH2  OT    -0.834000       15.9994           0
    7841 WTD1 2227 TIP3 H1   HT     0.417000        1.0079           0
    7842 WTD1 2227 TIP3 H2   HT     0.417000        1.0079           0
    7843 WTD1 2228 TIP3 OH2  OT    -0.834000       15.9994           0
    7844 WTD1 2228 TIP3 H1   HT     0.417000        1.0079           0
    7845 WTD1 2228 TIP3 H2   HT     0.417000        1.0079           0
    7846 WTD1 2229 TIP3 OH2  OT    -0.834000       15.9994           0
    7847 WTD1 2229 TIP3 H1   HT     0.417000        1.0079           0
    7848 WTD1 2229 TIP3 H2   HT     0.417000        1.0079           0
    7849 WTD1 2233 TIP3 OH2  OT    -0.834000       15.9994           0
    7850 WTD1 2233 TIP3 H1   HT     0.417000        1.0079           0
    7851 WTD1 2233 TIP3 H2   HT     0.417000        1.0079           0
    7852 WTD1 2244 TIP3 OH2  OT    -0.834000       15.9994           0
    7853 WTD1 2244 TIP3 H1   HT     0.417000        1.0079           0
    7854 WTD1 2244 TIP3 H2   HT     0.417000        1.0079           0
    7855 WTD1 2250 TIP3 OH2  OT    -0.834000       15.9994           0
    7856 WTD1 2250 TIP3 H1   HT     0.417000        1.0079           0
    7857 WTD1 2250 TIP3 H2   HT     0.417000        1.0079           0
    7858 WTD1 2251 TIP3 OH2  OT    -0.834000       15.9994           0
    7859 WTD1 2251 TIP3 H1   HT     0.417000        1.0079           0
    7860 WTD1 2251 TIP3 H2   HT     0.417000        1.0079           0
    7861 WTD1 2253 TIP3 OH2  OT    -0.834000       15.9994           0
    7862 WTD1 2253 TIP3 H1   HT     0.417000        1.0079           0
    7863 WTD1 2253 TIP3 H2   HT     0.417000        1.0079           0
    7864 WTD1 2255 TIP3 OH2  OT    -0.834000       15.9994           0
    7865 WTD1 2255 TIP3 H1   HT     0.417000        1.0079           0
    7866 WTD1 2255 TIP3 H2   HT     0.417000        1.0079           0
    7867 WTD1 2270 TIP3 OH2  OT    -0.834000       15.9994           0
    7868 WTD1 2270 TIP3 H1   HT     0.417000        1.0079           0
    7869 WTD1 2270 TIP3 H2   HT     0.417000        1.0079           0
    7870 WTD1 2271 TIP3 OH2  OT    -0.834000       15.9994           0
    7871 WTD1 2271 TIP3 H1   HT     0.417000        1.0079           0
    7872 WTD1 2271 TIP3 H2   HT     0.417000        1.0079           0
    7873 WTD1 2275 TIP3 OH2  OT    -0.834000       15.9994           0
    7874 WTD1 2275 TIP3 H1   HT     0.417000        1.0079           0
    7875 WTD1 2275 TIP3 H2   HT     0.417000        1.0079           0
    7876 WTD1 2288 TIP3 OH2  OT    -0.834000       15.9994           0
    7877 WTD1 2288 TIP3 H1   HT     0.417000        1.0079           0
    7878 WTD1 2288 TIP3 H2   HT     0.417000        1.0079           0
    7879 WTD1 2290 TIP3 OH2  OT    -0.834000       15.9994           0
    7880 WTD1 2290 TIP3 H1   HT     0.417000        1.0079           0
    7881 WTD1 2290 TIP3 H2   HT     0.417000        1.0079           0
    7882 WTD1 2293 TIP3 OH2  OT    -0.834000       15.9994           0
    7883 WTD1 2293 TIP3 H1   HT     0.417000        1.0079           0
    7884 WTD1 2293 TIP3 H2   HT     0.417000        1.0079           0
    7885 WTD1 2296 TIP3 OH2  OT    -0.834000       15.9994           0
    7886 WTD1 2296 TIP3 H1   HT     0.417000        1.0079           0
    7887 WTD1 2296 TIP3 H2   HT     0.417000        1.0079           0
    7888 WTD1 2309 TIP3 OH2  OT    -0.834000       15.9994           0
    7889 WTD1 2309 TIP3 H1   HT     0.417000        1.0079           0
    7890 WTD1 2309 TIP3 H2   HT     0.417000        1.0079           0
    7891 WTD1 2311 TIP3 OH2  OT    -0.834000       15.9994           0
    7892 WTD1 2311 TIP3 H1   HT     0.417000        1.0079           0
    7893 WTD1 2311 TIP3 H2   HT     0.417000        1.0079           0
    7894 WTD1 2313 TIP3 OH2  OT    -0.834000       15.9994           0
    7895 WTD1 2313 TIP3 H1   HT     0.417000        1.0079           0
    7896 WTD1 2313 TIP3 H2   HT     0.417000        1.0079           0
    7897 WTD1 2314 TIP3 OH2  OT    -0.834000       15.9994           0
    7898 WTD1 2314 TIP3 H1   HT     0.417000        1.0079           0
    7899 WTD1 2314 TIP3 H2   HT     0.417000        1.0079           0
    7900 WTD1 2316 TIP3 OH2  OT    -0.834000       15.9994           0
    7901 WTD1 2316 TIP3 H1   HT     0.417000        1.0079           0
    7902 WTD1 2316 TIP3 H2   HT     0.417000        1.0079           0
    7903 WTD1 2318 TIP3 OH2  OT    -0.834000       15.9994           0
    7904 WTD1 2318 TIP3 H1   HT     0.417000        1.0079           0
    7905 WTD1 2318 TIP3 H2   HT     0.417000        1.0079           0
    7906 WTD1 2329 TIP3 OH2  OT    -0.834000       15.9994           0
    7907 WTD1 2329 TIP3 H1   HT     0.417000        1.0079           0
    7908 WTD1 2329 TIP3 H2   HT     0.417000        1.0079           0
    7909 WTD1 2331 TIP3 OH2  OT    -0.834000       15.9994           0
    7910 WTD1 2331 TIP3 H1   HT     0.417000        1.0079           0
    7911 WTD1 2331 TIP3 H2   HT     0.417000        1.0079           0
    7912 WTD1 2332 TIP3 OH2  OT    -0.834000       15.9994           0
    7913 WTD1 2332 TIP3 H1   HT     0.417000        1.0079           0
    7914 WTD1 2332 TIP3 H2   HT     0.417000        1.0079           0
    7915 WTD1 2333 TIP3 OH2  OT    -0.834000       15.9994           0
    7916 WTD1 2333 TIP3 H1   HT     0.417000        1.0079           0
    7917 WTD1 2333 TIP3 H2   HT     0.417000        1.0079           0
    7918 WTD1 2336 TIP3 OH2  OT    -0.834000       15.9994           0
    7919 WTD1 2336 TIP3 H1   HT     0.417000        1.0079           0
    7920 WTD1 2336 TIP3 H2   HT     0.417000        1.0079           0
    7921 WTD1 2338 TIP3 OH2  OT    -0.834000       15.9994           0
    7922 WTD1 2338 TIP3 H1   HT     0.417000        1.0079           0
    7923 WTD1 2338 TIP3 H2   HT     0.417000        1.0079           0
    7924 WTD1 2351 TIP3 OH2  OT    -0.834000       15.9994           0
    7925 WTD1 2351 TIP3 H1   HT     0.417000        1.0079           0
    7926 WTD1 2351 TIP3 H2   HT     0.417000        1.0079           0
    7927 WTD1 2352 TIP3 OH2  OT    -0.834000       15.9994           0
    7928 WTD1 2352 TIP3 H1   HT     0.417000        1.0079           0
    7929 WTD1 2352 TIP3 H2   HT     0.417000        1.0079           0
    7930 WTD1 2354 TIP3 OH2  OT    -0.834000       15.9994           0
    7931 WTD1 2354 TIP3 H1   HT     0.417000        1.0079           0
    7932 WTD1 2354 TIP3 H2   HT     0.417000        1.0079           0
    7933 WTD1 2355 TIP3 OH2  OT    -0.834000       15.9994           0
    7934 WTD1 2355 TIP3 H1   HT     0.417000        1.0079           0
    7935 WTD1 2355 TIP3 H2   HT     0.417000        1.0079           0
    7936 WTD1 2357 TIP3 OH2  OT    -0.834000       15.9994           0
    7937 WTD1 2357 TIP3 H1   HT     0.417000        1.0079           0
    7938 WTD1 2357 TIP3 H2   HT     0.417000        1.0079           0
    7939 WTD1 2358 TIP3 OH2  OT    -0.834000       15.9994           0
    7940 WTD1 2358 TIP3 H1   HT     0.417000        1.0079           0
    7941 WTD1 2358 TIP3 H2   HT     0.417000        1.0079           0
    7942 WTD1 2376 TIP3 OH2  OT    -0.834000       15.9994           0
    7943 WTD1 2376 TIP3 H1   HT     0.417000        1.0079           0
    7944 WTD1 2376 TIP3 H2   HT     0.417000        1.0079           0
    7945 WTD1 2377 TIP3 OH2  OT    -0.834000       15.9994           0
    7946 WTD1 2377 TIP3 H1   HT     0.417000        1.0079           0
    7947 WTD1 2377 TIP3 H2   HT     0.417000        1.0079           0
    7948 WTD1 2380 TIP3 OH2  OT    -0.834000       15.9994           0
    7949 WTD1 2380 TIP3 H1   HT     0.417000        1.0079           0
    7950 WTD1 2380 TIP3 H2   HT     0.417000        1.0079           0
    7951 WTD1 2395 TIP3 OH2  OT    -0.834000       15.9994           0
    7952 WTD1 2395 TIP3 H1   HT     0.417000        1.0079           0
    7953 WTD1 2395 TIP3 H2   HT     0.417000        1.0079           0
    7954 WTD1 2397 TIP3 OH2  OT    -0.834000       15.9994           0
    7955 WTD1 2397 TIP3 H1   HT     0.417000        1.0079           0
    7956 WTD1 2397 TIP3 H2   HT     0.417000        1.0079           0
    7957 WTD1 2416 TIP3 OH2  OT    -0.834000       15.9994           0
    7958 WTD1 2416 TIP3 H1   HT     0.417000        1.0079           0
    7959 WTD1 2416 TIP3 H2   HT     0.417000        1.0079           0
    7960 WTD1 2417 TIP3 OH2  OT    -0.834000       15.9994           0
    7961 WTD1 2417 TIP3 H1   HT     0.417000        1.0079           0
    7962 WTD1 2417 TIP3 H2   HT     0.417000        1.0079           0
    7963 WTD1 2419 TIP3 OH2  OT    -0.834000       15.9994           0
    7964 WTD1 2419 TIP3 H1   HT     0.417000        1.0079           0
    7965 WTD1 2419 TIP3 H2   HT     0.417000        1.0079           0
    7966 WTD1 2421 TIP3 OH2  OT    -0.834000       15.9994           0
    7967 WTD1 2421 TIP3 H1   HT     0.417000        1.0079           0
    7968 WTD1 2421 TIP3 H2   HT     0.417000        1.0079           0
    7969 WTD1 2423 TIP3 OH2  OT    -0.834000       15.9994           0
    7970 WTD1 2423 TIP3 H1   HT     0.417000        1.0079           0
    7971 WTD1 2423 TIP3 H2   HT     0.417000        1.0079           0
    7972 WTD1 2436 TIP3 OH2  OT    -0.834000       15.9994           0
    7973 WTD1 2436 TIP3 H1   HT     0.417000        1.0079           0
    7974 WTD1 2436 TIP3 H2   HT     0.417000        1.0079           0
    7975 WTD1 2438 TIP3 OH2  OT    -0.834000       15.9994           0
    7976 WTD1 2438 TIP3 H1   HT     0.417000        1.0079           0
    7977 WTD1 2438 TIP3 H2   HT     0.417000        1.0079           0
    7978 WTD1 2440 TIP3 OH2  OT    -0.834000       15.9994           0
    7979 WTD1 2440 TIP3 H1   HT     0.417000        1.0079           0
    7980 WTD1 2440 TIP3 H2   HT     0.417000        1.0079           0
    7981 WTD1 2441 TIP3 OH2  OT    -0.834000       15.9994           0
    7982 WTD1 2441 TIP3 H1   HT     0.417000        1.0079           0
    7983 WTD1 2441 TIP3 H2   HT     0.417000        1.0079           0
    7984 WTD1 2458 TIP3 OH2  OT    -0.834000       15.9994           0
    7985 WTD1 2458 TIP3 H1   HT     0.417000        1.0079           0
    7986 WTD1 2458 TIP3 H2   HT     0.417000        1.0079           0
    7987 WTD1 2459 TIP3 OH2  OT    -0.834000       15.9994           0
    7988 WTD1 2459 TIP3 H1   HT     0.417000        1.0079           0
    7989 WTD1 2459 TIP3 H2   HT     0.417000        1.0079           0
    7990 WTD1 2460 TIP3 OH2  OT    -0.834000       15.9994           0
    7991 WTD1 2460 TIP3 H1   HT     0.417000        1.0079           0
    7992 WTD1 2460 TIP3 H2   HT     0.417000        1.0079           0
    7993 WTD1 2461 TIP3 OH2  OT    -0.834000       15.9994           0
    7994 WTD1 2461 TIP3 H1   HT     0.417000        1.0079           0
    7995 WTD1 2461 TIP3 H2   HT     0.417000        1.0079           0
    7996 WTD1 2482 TIP3 OH2  OT    -0.834000       15.9994           0
    7997 WTD1 2482 TIP3 H1   HT     0.417000        1.0079           0
    7998 WTD1 2482 TIP3 H2   HT     0.417000        1.0079           0
    7999 WTD1 2483 TIP3 OH2  OT    -0.834000       15.9994           0
    8000 WTD1 2483 TIP3 H1   HT     0.417000        1.0079           0
    8001 WTD1 2483 TIP3 H2   HT     0.417000        1.0079           0
    8002 WTD1 2499 TIP3 OH2  OT    -0.834000       15.9994           0
    8003 WTD1 2499 TIP3 H1   HT     0.417000        1.0079           0
    8004 WTD1 2499 TIP3 H2   HT     0.417000        1.0079           0
    8005 WTD1 2503 TIP3 OH2  OT    -0.834000       15.9994           0
    8006 WTD1 2503 TIP3 H1   HT     0.417000        1.0079           0
    8007 WTD1 2503 TIP3 H2   HT     0.417000        1.0079           0
    8008 WTD1 2519 TIP3 OH2  OT    -0.834000       15.9994           0
    8009 WTD1 2519 TIP3 H1   HT     0.417000        1.0079           0
    8010 WTD1 2519 TIP3 H2   HT     0.417000        1.0079           0
    8011 WTD1 2522 TIP3 OH2  OT    -0.834000       15.9994           0
    8012 WTD1 2522 TIP3 H1   HT     0.417000        1.0079           0
    8013 WTD1 2522 TIP3 H2   HT     0.417000        1.0079           0
    8014 WTD1 2523 TIP3 OH2  OT    -0.834000       15.9994           0
    8015 WTD1 2523 TIP3 H1   HT     0.417000        1.0079           0
    8016 WTD1 2523 TIP3 H2   HT     0.417000        1.0079           0
    8017 WTD1 2525 TIP3 OH2  OT    -0.834000       15.9994           0
    8018 WTD1 2525 TIP3 H1   HT     0.417000        1.0079           0
    8019 WTD1 2525 TIP3 H2   HT     0.417000        1.0079           0
    8020 WTD1 2526 TIP3 OH2  OT    -0.834000       15.9994           0
    8021 WTD1 2526 TIP3 H1   HT     0.417000        1.0079           0
    8022 WTD1 2526 TIP3 H2   HT     0.417000        1.0079           0
    8023 WTD1 2528 TIP3 OH2  OT    -0.834000       15.9994           0
    8024 WTD1 2528 TIP3 H1   HT     0.417000        1.0079           0
    8025 WTD1 2528 TIP3 H2   HT     0.417000        1.0079           0
    8026 WTD1 2539 TIP3 OH2  OT    -0.834000       15.9994           0
    8027 WTD1 2539 TIP3 H1   HT     0.417000        1.0079           0
    8028 WTD1 2539 TIP3 H2   HT     0.417000        1.0079           0
    8029 WTD1 2540 TIP3 OH2  OT    -0.834000       15.9994           0
    8030 WTD1 2540 TIP3 H1   HT     0.417000        1.0079           0
    8031 WTD1 2540 TIP3 H2   HT     0.417000        1.0079           0
    8032 WTD1 2541 TIP3 OH2  OT    -0.834000       15.9994           0
    8033 WTD1 2541 TIP3 H1   HT     0.417000        1.0079           0
    8034 WTD1 2541 TIP3 H2   HT     0.417000        1.0079           0
    8035 WTD1 2547 TIP3 OH2  OT    -0.834000       15.9994           0
    8036 WTD1 2547 TIP3 H1   HT     0.417000        1.0079           0
    8037 WTD1 2547 TIP3 H2   HT     0.417000        1.0079           0
    8038 WTD1 2562 TIP3 OH2  OT    -0.834000       15.9994           0
    8039 WTD1 2562 TIP3 H1   HT     0.417000        1.0079           0
    8040 WTD1 2562 TIP3 H2   HT     0.417000        1.0079           0
    8041 WTD1 2563 TIP3 OH2  OT    -0.834000       15.9994           0
    8042 WTD1 2563 TIP3 H1   HT     0.417000        1.0079           0
    8043 WTD1 2563 TIP3 H2   HT     0.417000        1.0079           0
    8044 WTD1 2564 TIP3 OH2  OT    -0.834000       15.9994           0
    8045 WTD1 2564 TIP3 H1   HT     0.417000        1.0079           0
    8046 WTD1 2564 TIP3 H2   HT     0.417000        1.0079           0
    8047 WTD1 2565 TIP3 OH2  OT    -0.834000       15.9994           0
    8048 WTD1 2565 TIP3 H1   HT     0.417000        1.0079           0
    8049 WTD1 2565 TIP3 H2   HT     0.417000        1.0079           0
    8050 WTD1 2580 TIP3 OH2  OT    -0.834000       15.9994           0
    8051 WTD1 2580 TIP3 H1   HT     0.417000        1.0079           0
    8052 WTD1 2580 TIP3 H2   HT     0.417000        1.0079           0
    8053 WTD1 2582 TIP3 OH2  OT    -0.834000       15.9994           0
    8054 WTD1 2582 TIP3 H1   HT     0.417000        1.0079           0
    8055 WTD1 2582 TIP3 H2   HT     0.417000        1.0079           0
    8056 WTD1 2584 TIP3 OH2  OT    -0.834000       15.9994           0
    8057 WTD1 2584 TIP3 H1   HT     0.417000        1.0079           0
    8058 WTD1 2584 TIP3 H2   HT     0.417000        1.0079           0
    8059 WTD1 2606 TIP3 OH2  OT    -0.834000       15.9994           0
    8060 WTD1 2606 TIP3 H1   HT     0.417000        1.0079           0
    8061 WTD1 2606 TIP3 H2   HT     0.417000        1.0079           0
    8062 WTD1 2607 TIP3 OH2  OT    -0.834000       15.9994           0
    8063 WTD1 2607 TIP3 H1   HT     0.417000        1.0079           0
    8064 WTD1 2607 TIP3 H2   HT     0.417000        1.0079           0
    8065 WTD1 2608 TIP3 OH2  OT    -0.834000       15.9994           0
    8066 WTD1 2608 TIP3 H1   HT     0.417000        1.0079           0
    8067 WTD1 2608 TIP3 H2   HT     0.417000        1.0079           0
    8068 WTD1 2610 TIP3 OH2  OT    -0.834000       15.9994           0
    8069 WTD1 2610 TIP3 H1   HT     0.417000        1.0079           0
    8070 WTD1 2610 TIP3 H2   HT     0.417000        1.0079           0
    8071 WTD1 2628 TIP3 OH2  OT    -0.834000       15.9994           0
    8072 WTD1 2628 TIP3 H1   HT     0.417000        1.0079           0
    8073 WTD1 2628 TIP3 H2   HT     0.417000        1.0079           0
    8074 WTD1 2631 TIP3 OH2  OT    -0.834000       15.9994           0
    8075 WTD1 2631 TIP3 H1   HT     0.417000        1.0079           0
    8076 WTD1 2631 TIP3 H2   HT     0.417000        1.0079           0
    8077 WTD1 2634 TIP3 OH2  OT    -0.834000       15.9994           0
    8078 WTD1 2634 TIP3 H1   HT     0.417000        1.0079           0
    8079 WTD1 2634 TIP3 H2   HT     0.417000        1.0079           0
    8080 WTD1 2648 TIP3 OH2  OT    -0.834000       15.9994           0
    8081 WTD1 2648 TIP3 H1   HT     0.417000        1.0079           0
    8082 WTD1 2648 TIP3 H2   HT     0.417000        1.0079           0
    8083 WTD1 2649 TIP3 OH2  OT    -0.834000       15.9994           0
    8084 WTD1 2649 TIP3 H1   HT     0.417000        1.0079           0
    8085 WTD1 2649 TIP3 H2   HT     0.417000        1.0079           0
    8086 WTD1 2650 TIP3 OH2  OT    -0.834000       15.9994           0
    8087 WTD1 2650 TIP3 H1   HT     0.417000        1.0079           0
    8088 WTD1 2650 TIP3 H2   HT     0.417000        1.0079           0
    8089 WTD1 2653 TIP3 OH2  OT    -0.834000       15.9994           0
    8090 WTD1 2653 TIP3 H1   HT     0.417000        1.0079           0
    8091 WTD1 2653 TIP3 H2   HT     0.417000        1.0079           0
    8092 WTD1 2654 TIP3 OH2  OT    -0.834000       15.9994           0
    8093 WTD1 2654 TIP3 H1   HT     0.417000        1.0079           0
    8094 WTD1 2654 TIP3 H2   HT     0.417000        1.0079           0
    8095 WTD1 2668 TIP3 OH2  OT    -0.834000       15.9994           0
    8096 WTD1 2668 TIP3 H1   HT     0.417000        1.0079           0
    8097 WTD1 2668 TIP3 H2   HT     0.417000        1.0079           0
    8098 WTD1 2669 TIP3 OH2  OT    -0.834000       15.9994           0
    8099 WTD1 2669 TIP3 H1   HT     0.417000        1.0079           0
    8100 WTD1 2669 TIP3 H2   HT     0.417000        1.0079           0
    8101 WTD1 2689 TIP3 OH2  OT    -0.834000       15.9994           0
    8102 WTD1 2689 TIP3 H1   HT     0.417000        1.0079           0
    8103 WTD1 2689 TIP3 H2   HT     0.417000        1.0079           0
    8104 WTD1 2690 TIP3 OH2  OT    -0.834000       15.9994           0
    8105 WTD1 2690 TIP3 H1   HT     0.417000        1.0079           0
    8106 WTD1 2690 TIP3 H2   HT     0.417000        1.0079           0
    8107 WTD1 2692 TIP3 OH2  OT    -0.834000       15.9994           0
    8108 WTD1 2692 TIP3 H1   HT     0.417000        1.0079           0
    8109 WTD1 2692 TIP3 H2   HT     0.417000        1.0079           0
    8110 WTD1 2709 TIP3 OH2  OT    -0.834000       15.9994           0
    8111 WTD1 2709 TIP3 H1   HT     0.417000        1.0079           0
    8112 WTD1 2709 TIP3 H2   HT     0.417000        1.0079           0
    8113 WTD1 2710 TIP3 OH2  OT    -0.834000       15.9994           0
    8114 WTD1 2710 TIP3 H1   HT     0.417000        1.0079           0
    8115 WTD1 2710 TIP3 H2   HT     0.417000        1.0079           0
    8116 WTD1 2713 TIP3 OH2  OT    -0.834000       15.9994           0
    8117 WTD1 2713 TIP3 H1   HT     0.417000        1.0079           0
    8118 WTD1 2713 TIP3 H2   HT     0.417000        1.0079           0
    8119 WTD1 2715 TIP3 OH2  OT    -0.834000       15.9994           0
    8120 WTD1 2715 TIP3 H1   HT     0.417000        1.0079           0
    8121 WTD1 2715 TIP3 H2   HT     0.417000        1.0079           0
    8122 WTD1 2732 TIP3 OH2  OT    -0.834000       15.9994           0
    8123 WTD1 2732 TIP3 H1   HT     0.417000        1.0079           0
    8124 WTD1 2732 TIP3 H2   HT     0.417000        1.0079           0
    8125 WTD1 2734 TIP3 OH2  OT    -0.834000       15.9994           0
    8126 WTD1 2734 TIP3 H1   HT     0.417000        1.0079           0
    8127 WTD1 2734 TIP3 H2   HT     0.417000        1.0079           0
    8128 WTD1 2735 TIP3 OH2  OT    -0.834000       15.9994           0
    8129 WTD1 2735 TIP3 H1   HT     0.417000        1.0079           0
    8130 WTD1 2735 TIP3 H2   HT     0.417000        1.0079           0
    8131 WTD1 2736 TIP3 OH2  OT    -0.834000       15.9994           0
    8132 WTD1 2736 TIP3 H1   HT     0.417000        1.0079           0
    8133 WTD1 2736 TIP3 H2   HT     0.417000        1.0079           0
    8134 WTD1 2753 TIP3 OH2  OT    -0.834000       15.9994           0
    8135 WTD1 2753 TIP3 H1   HT     0.417000        1.0079           0
    8136 WTD1 2753 TIP3 H2   HT     0.417000        1.0079           0
    8137 WTD1 2754 TIP3 OH2  OT    -0.834000       15.9994           0
    8138 WTD1 2754 TIP3 H1   HT     0.417000        1.0079           0
    8139 WTD1 2754 TIP3 H2   HT     0.417000        1.0079           0
    8140 WTD1 2771 TIP3 OH2  OT    -0.834000       15.9994           0
    8141 WTD1 2771 TIP3 H1   HT     0.417000        1.0079           0
    8142 WTD1 2771 TIP3 H2   HT     0.417000        1.0079           0
    8143 WTD1 2774 TIP3 OH2  OT    -0.834000       15.9994           0
    8144 WTD1 2774 TIP3 H1   HT     0.417000        1.0079           0
    8145 WTD1 2774 TIP3 H2   HT     0.417000        1.0079           0
    8146 WTD1 2775 TIP3 OH2  OT    -0.834000       15.9994           0
    8147 WTD1 2775 TIP3 H1   HT     0.417000        1.0079           0
    8148 WTD1 2775 TIP3 H2   HT     0.417000        1.0079           0
    8149 WTD1 2777 TIP3 OH2  OT    -0.834000       15.9994           0
    8150 WTD1 2777 TIP3 H1   HT     0.417000        1.0079           0
    8151 WTD1 2777 TIP3 H2   HT     0.417000        1.0079           0
    8152 WTD1 2781 TIP3 OH2  OT    -0.834000       15.9994           0
    8153 WTD1 2781 TIP3 H1   HT     0.417000        1.0079           0
    8154 WTD1 2781 TIP3 H2   HT     0.417000        1.0079           0
    8155 WTD1 2794 TIP3 OH2  OT    -0.834000       15.9994           0
    8156 WTD1 2794 TIP3 H1   HT     0.417000        1.0079           0
    8157 WTD1 2794 TIP3 H2   HT     0.417000        1.0079           0
    8158 WTD1 2795 TIP3 OH2  OT    -0.834000       15.9994           0
    8159 WTD1 2795 TIP3 H1   HT     0.417000        1.0079           0
    8160 WTD1 2795 TIP3 H2   HT     0.417000        1.0079           0
    8161 WTD1 2796 TIP3 OH2  OT    -0.834000       15.9994           0
    8162 WTD1 2796 TIP3 H1   HT     0.417000        1.0079           0
    8163 WTD1 2796 TIP3 H2   HT     0.417000        1.0079           0
    8164 WTD1 2798 TIP3 OH2  OT    -0.834000       15.9994           0
    8165 WTD1 2798 TIP3 H1   HT     0.417000        1.0079           0
    8166 WTD1 2798 TIP3 H2   HT     0.417000        1.0079           0
    8167 WTD1 2814 TIP3 OH2  OT    -0.834000       15.9994           0
    8168 WTD1 2814 TIP3 H1   HT     0.417000        1.0079           0
    8169 WTD1 2814 TIP3 H2   HT     0.417000        1.0079           0
    8170 WTD1 2815 TIP3 OH2  OT    -0.834000       15.9994           0
    8171 WTD1 2815 TIP3 H1   HT     0.417000        1.0079           0
    8172 WTD1 2815 TIP3 H2   HT     0.417000        1.0079           0
    8173 WTD1 2819 TIP3 OH2  OT    -0.834000       15.9994           0
    8174 WTD1 2819 TIP3 H1   HT     0.417000        1.0079           0
    8175 WTD1 2819 TIP3 H2   HT     0.417000        1.0079           0
    8176 WTD1 2832 TIP3 OH2  OT    -0.834000       15.9994           0
    8177 WTD1 2832 TIP3 H1   HT     0.417000        1.0079           0
    8178 WTD1 2832 TIP3 H2   HT     0.417000        1.0079           0
    8179 WTD1 2838 TIP3 OH2  OT    -0.834000       15.9994           0
    8180 WTD1 2838 TIP3 H1   HT     0.417000        1.0079           0
    8181 WTD1 2838 TIP3 H2   HT     0.417000        1.0079           0
    8182 WTD1 2857 TIP3 OH2  OT    -0.834000       15.9994           0
    8183 WTD1 2857 TIP3 H1   HT     0.417000        1.0079           0
    8184 WTD1 2857 TIP3 H2   HT     0.417000        1.0079           0
    8185 WTD1 2859 TIP3 OH2  OT    -0.834000       15.9994           0
    8186 WTD1 2859 TIP3 H1   HT     0.417000        1.0079           0
    8187 WTD1 2859 TIP3 H2   HT     0.417000        1.0079           0
    8188 WTD1 2877 TIP3 OH2  OT    -0.834000       15.9994           0
    8189 WTD1 2877 TIP3 H1   HT     0.417000        1.0079           0
    8190 WTD1 2877 TIP3 H2   HT     0.417000        1.0079           0
    8191 WTD1 2878 TIP3 OH2  OT    -0.834000       15.9994           0
    8192 WTD1 2878 TIP3 H1   HT     0.417000        1.0079           0
    8193 WTD1 2878 TIP3 H2   HT     0.417000        1.0079           0
    8194 WTD1 2884 TIP3 OH2  OT    -0.834000       15.9994           0
    8195 WTD1 2884 TIP3 H1   HT     0.417000        1.0079           0
    8196 WTD1 2884 TIP3 H2   HT     0.417000        1.0079           0
    8197 WTD1 2900 TIP3 OH2  OT    -0.834000       15.9994           0
    8198 WTD1 2900 TIP3 H1   HT     0.417000        1.0079           0
    8199 WTD1 2900 TIP3 H2   HT     0.417000        1.0079           0
    8200 WTD1 2902 TIP3 OH2  OT    -0.834000       15.9994           0
    8201 WTD1 2902 TIP3 H1   HT     0.417000        1.0079           0
    8202 WTD1 2902 TIP3 H2   HT     0.417000        1.0079           0
    8203 WTD1 2903 TIP3 OH2  OT    -0.834000       15.9994           0
    8204 WTD1 2903 TIP3 H1   HT     0.417000        1.0079           0
    8205 WTD1 2903 TIP3 H2   HT     0.417000        1.0079           0
    8206 WTD1 2918 TIP3 OH2  OT    -0.834000       15.9994           0
    8207 WTD1 2918 TIP3 H1   HT     0.417000        1.0079           0
    8208 WTD1 2918 TIP3 H2   HT     0.417000        1.0079           0
    8209 WTD1 2919 TIP3 OH2  OT    -0.834000       15.9994           0
    8210 WTD1 2919 TIP3 H1   HT     0.417000        1.0079           0
    8211 WTD1 2919 TIP3 H2   HT     0.417000        1.0079           0
    8212 WTD1 2920 TIP3 OH2  OT    -0.834000       15.9994           0
    8213 WTD1 2920 TIP3 H1   HT     0.417000        1.0079           0
    8214 WTD1 2920 TIP3 H2   HT     0.417000        1.0079           0
    8215 WTD1 2923 TIP3 OH2  OT    -0.834000       15.9994           0
    8216 WTD1 2923 TIP3 H1   HT     0.417000        1.0079           0
    8217 WTD1 2923 TIP3 H2   HT     0.417000        1.0079           0
    8218 WTD1 2925 TIP3 OH2  OT    -0.834000       15.9994           0
    8219 WTD1 2925 TIP3 H1   HT     0.417000        1.0079           0
    8220 WTD1 2925 TIP3 H2   HT     0.417000        1.0079           0
    8221 WTD1 2927 TIP3 OH2  OT    -0.834000       15.9994           0
    8222 WTD1 2927 TIP3 H1   HT     0.417000        1.0079           0
    8223 WTD1 2927 TIP3 H2   HT     0.417000        1.0079           0
    8224 WTD1 2938 TIP3 OH2  OT    -0.834000       15.9994           0
    8225 WTD1 2938 TIP3 H1   HT     0.417000        1.0079           0
    8226 WTD1 2938 TIP3 H2   HT     0.417000        1.0079           0
    8227 WTD1 2941 TIP3 OH2  OT    -0.834000       15.9994           0
    8228 WTD1 2941 TIP3 H1   HT     0.417000        1.0079           0
    8229 WTD1 2941 TIP3 H2   HT     0.417000        1.0079           0
    8230 WTD1 2944 TIP3 OH2  OT    -0.834000       15.9994           0
    8231 WTD1 2944 TIP3 H1   HT     0.417000        1.0079           0
    8232 WTD1 2944 TIP3 H2   HT     0.417000        1.0079           0
    8233 WTD1 2945 TIP3 OH2  OT    -0.834000       15.9994           0
    8234 WTD1 2945 TIP3 H1   HT     0.417000        1.0079           0
    8235 WTD1 2945 TIP3 H2   HT     0.417000        1.0079           0
    8236 WTD1 2960 TIP3 OH2  OT    -0.834000       15.9994           0
    8237 WTD1 2960 TIP3 H1   HT     0.417000        1.0079           0
    8238 WTD1 2960 TIP3 H2   HT     0.417000        1.0079           0
    8239 WTD1 2961 TIP3 OH2  OT    -0.834000       15.9994           0
    8240 WTD1 2961 TIP3 H1   HT     0.417000        1.0079           0
    8241 WTD1 2961 TIP3 H2   HT     0.417000        1.0079           0
    8242 WTD1 2963 TIP3 OH2  OT    -0.834000       15.9994           0
    8243 WTD1 2963 TIP3 H1   HT     0.417000        1.0079           0
    8244 WTD1 2963 TIP3 H2   HT     0.417000        1.0079           0
    8245 WTD1 2964 TIP3 OH2  OT    -0.834000       15.9994           0
    8246 WTD1 2964 TIP3 H1   HT     0.417000        1.0079           0
    8247 WTD1 2964 TIP3 H2   HT     0.417000        1.0079           0
    8248 WTD1 2967 TIP3 OH2  OT    -0.834000       15.9994           0
    8249 WTD1 2967 TIP3 H1   HT     0.417000        1.0079           0
    8250 WTD1 2967 TIP3 H2   HT     0.417000        1.0079           0
    8251 WTD1 2979 TIP3 OH2  OT    -0.834000       15.9994           0
    8252 WTD1 2979 TIP3 H1   HT     0.417000        1.0079           0
    8253 WTD1 2979 TIP3 H2   HT     0.417000        1.0079           0
    8254 WTD1 2981 TIP3 OH2  OT    -0.834000       15.9994           0
    8255 WTD1 2981 TIP3 H1   HT     0.417000        1.0079           0
    8256 WTD1 2981 TIP3 H2   HT     0.417000        1.0079           0
    8257 WTD1 2983 TIP3 OH2  OT    -0.834000       15.9994           0
    8258 WTD1 2983 TIP3 H1   HT     0.417000        1.0079           0
    8259 WTD1 2983 TIP3 H2   HT     0.417000        1.0079           0
    8260 WTD1 2984 TIP3 OH2  OT    -0.834000       15.9994           0
    8261 WTD1 2984 TIP3 H1   HT     0.417000        1.0079           0
    8262 WTD1 2984 TIP3 H2   HT     0.417000        1.0079           0
    8263 WTD1 2986 TIP3 OH2  OT    -0.834000       15.9994           0
    8264 WTD1 2986 TIP3 H1   HT     0.417000        1.0079           0
    8265 WTD1 2986 TIP3 H2   HT     0.417000        1.0079           0
    8266 WTD1 3002 TIP3 OH2  OT    -0.834000       15.9994           0
    8267 WTD1 3002 TIP3 H1   HT     0.417000        1.0079           0
    8268 WTD1 3002 TIP3 H2   HT     0.417000        1.0079           0
    8269 WTD1 3010 TIP3 OH2  OT    -0.834000       15.9994           0
    8270 WTD1 3010 TIP3 H1   HT     0.417000        1.0079           0
    8271 WTD1 3010 TIP3 H2   HT     0.417000        1.0079           0
    8272 WTD1 3013 TIP3 OH2  OT    -0.834000       15.9994           0
    8273 WTD1 3013 TIP3 H1   HT     0.417000        1.0079           0
    8274 WTD1 3013 TIP3 H2   HT     0.417000        1.0079           0
    8275 WTD1 3018 TIP3 OH2  OT    -0.834000       15.9994           0
    8276 WTD1 3018 TIP3 H1   HT     0.417000        1.0079           0
    8277 WTD1 3018 TIP3 H2   HT     0.417000        1.0079           0
    8278 WTD1 3029 TIP3 OH2  OT    -0.834000       15.9994           0
    8279 WTD1 3029 TIP3 H1   HT     0.417000        1.0079           0
    8280 WTD1 3029 TIP3 H2   HT     0.417000        1.0079           0
    8281 WTD1 3048 TIP3 OH2  OT    -0.834000       15.9994           0
    8282 WTD1 3048 TIP3 H1   HT     0.417000        1.0079           0
    8283 WTD1 3048 TIP3 H2   HT     0.417000        1.0079           0
    8284 WTD1 3067 TIP3 OH2  OT    -0.834000       15.9994           0
    8285 WTD1 3067 TIP3 H1   HT     0.417000        1.0079           0
    8286 WTD1 3067 TIP3 H2   HT     0.417000        1.0079           0
    8287 WTD1 3072 TIP3 OH2  OT    -0.834000       15.9994           0
    8288 WTD1 3072 TIP3 H1   HT     0.417000        1.0079           0
    8289 WTD1 3072 TIP3 H2   HT     0.417000        1.0079           0
    8290 WTD1 3073 TIP3 OH2  OT    -0.834000       15.9994           0
    8291 WTD1 3073 TIP3 H1   HT     0.417000        1.0079           0
    8292 WTD1 3073 TIP3 H2   HT     0.417000        1.0079           0
    8293 WTD1 3085 TIP3 OH2  OT    -0.834000       15.9994           0
    8294 WTD1 3085 TIP3 H1   HT     0.417000        1.0079           0
    8295 WTD1 3085 TIP3 H2   HT     0.417000        1.0079           0
    8296 WTD1 3086 TIP3 OH2  OT    -0.834000       15.9994           0
    8297 WTD1 3086 TIP3 H1   HT     0.417000        1.0079           0
    8298 WTD1 3086 TIP3 H2   HT     0.417000        1.0079           0
    8299 WTD1 3087 TIP3 OH2  OT    -0.834000       15.9994           0
    8300 WTD1 3087 TIP3 H1   HT     0.417000        1.0079           0
    8301 WTD1 3087 TIP3 H2   HT     0.417000        1.0079           0
    8302 WTD1 3088 TIP3 OH2  OT    -0.834000       15.9994           0
    8303 WTD1 3088 TIP3 H1   HT     0.417000        1.0079           0
    8304 WTD1 3088 TIP3 H2   HT     0.417000        1.0079           0
    8305 WTD1 3091 TIP3 OH2  OT    -0.834000       15.9994           0
    8306 WTD1 3091 TIP3 H1   HT     0.417000        1.0079           0
    8307 WTD1 3091 TIP3 H2   HT     0.417000        1.0079           0
    8308 WTD1 3093 TIP3 OH2  OT    -0.834000       15.9994           0
    8309 WTD1 3093 TIP3 H1   HT     0.417000        1.0079           0
    8310 WTD1 3093 TIP3 H2   HT     0.417000        1.0079           0
    8311 WTD1 3094 TIP3 OH2  OT    -0.834000       15.9994           0
    8312 WTD1 3094 TIP3 H1   HT     0.417000        1.0079           0
    8313 WTD1 3094 TIP3 H2   HT     0.417000        1.0079           0
    8314 WTD1 3108 TIP3 OH2  OT    -0.834000       15.9994           0
    8315 WTD1 3108 TIP3 H1   HT     0.417000        1.0079           0
    8316 WTD1 3108 TIP3 H2   HT     0.417000        1.0079           0
    8317 WTD1 3109 TIP3 OH2  OT    -0.834000       15.9994           0
    8318 WTD1 3109 TIP3 H1   HT     0.417000        1.0079           0
    8319 WTD1 3109 TIP3 H2   HT     0.417000        1.0079           0
    8320 WTD1 3110 TIP3 OH2  OT    -0.834000       15.9994           0
    8321 WTD1 3110 TIP3 H1   HT     0.417000        1.0079           0
    8322 WTD1 3110 TIP3 H2   HT     0.417000        1.0079           0
    8323 WTD1 3111 TIP3 OH2  OT    -0.834000       15.9994           0
    8324 WTD1 3111 TIP3 H1   HT     0.417000        1.0079           0
    8325 WTD1 3111 TIP3 H2   HT     0.417000        1.0079           0
    8326 WTD1 3112 TIP3 OH2  OT    -0.834000       15.9994           0
    8327 WTD1 3112 TIP3 H1   HT     0.417000        1.0079           0
    8328 WTD1 3112 TIP3 H2   HT     0.417000        1.0079           0
    8329 WTD1 3115 TIP3 OH2  OT    -0.834000       15.9994           0
    8330 WTD1 3115 TIP3 H1   HT     0.417000        1.0079           0
    8331 WTD1 3115 TIP3 H2   HT     0.417000        1.0079           0
    8332 WTD1 3128 TIP3 OH2  OT    -0.834000       15.9994           0
    8333 WTD1 3128 TIP3 H1   HT     0.417000        1.0079           0
    8334 WTD1 3128 TIP3 H2   HT     0.417000        1.0079           0
    8335 WTD1 3129 TIP3 OH2  OT    -0.834000       15.9994           0
    8336 WTD1 3129 TIP3 H1   HT     0.417000        1.0079           0
    8337 WTD1 3129 TIP3 H2   HT     0.417000        1.0079           0
    8338 WTD1 3131 TIP3 OH2  OT    -0.834000       15.9994           0
    8339 WTD1 3131 TIP3 H1   HT     0.417000        1.0079           0
    8340 WTD1 3131 TIP3 H2   HT     0.417000        1.0079           0
    8341 WTD1 3150 TIP3 OH2  OT    -0.834000       15.9994           0
    8342 WTD1 3150 TIP3 H1   HT     0.417000        1.0079           0
    8343 WTD1 3150 TIP3 H2   HT     0.417000        1.0079           0
    8344 WTD1 3152 TIP3 OH2  OT    -0.834000       15.9994           0
    8345 WTD1 3152 TIP3 H1   HT     0.417000        1.0079           0
    8346 WTD1 3152 TIP3 H2   HT     0.417000        1.0079           0
    8347 WTD1 3153 TIP3 OH2  OT    -0.834000       15.9994           0
    8348 WTD1 3153 TIP3 H1   HT     0.417000        1.0079           0
    8349 WTD1 3153 TIP3 H2   HT     0.417000        1.0079           0
    8350 WTD1 3157 TIP3 OH2  OT    -0.834000       15.9994           0
    8351 WTD1 3157 TIP3 H1   HT     0.417000        1.0079           0
    8352 WTD1 3157 TIP3 H2   HT     0.417000        1.0079           0
    8353 WTD1 3176 TIP3 OH2  OT    -0.834000       15.9994           0
    8354 WTD1 3176 TIP3 H1   HT     0.417000        1.0079           0
    8355 WTD1 3176 TIP3 H2   HT     0.417000        1.0079           0
    8356 WTD1 3187 TIP3 OH2  OT    -0.834000       15.9994           0
    8357 WTD1 3187 TIP3 H1   HT     0.417000        1.0079           0
    8358 WTD1 3187 TIP3 H2   HT     0.417000        1.0079           0
    8359 WTD1 3192 TIP3 OH2  OT    -0.834000       15.9994           0
    8360 WTD1 3192 TIP3 H1   HT     0.417000        1.0079           0
    8361 WTD1 3192 TIP3 H2   HT     0.417000        1.0079           0
    8362 WTD1 3214 TIP3 OH2  OT    -0.834000       15.9994           0
    8363 WTD1 3214 TIP3 H1   HT     0.417000        1.0079           0
    8364 WTD1 3214 TIP3 H2   HT     0.417000        1.0079           0
    8365 WTD1 3220 TIP3 OH2  OT    -0.834000       15.9994           0
    8366 WTD1 3220 TIP3 H1   HT     0.417000        1.0079           0
    8367 WTD1 3220 TIP3 H2   HT     0.417000        1.0079           0
    8368 WTD1 3233 TIP3 OH2  OT    -0.834000       15.9994           0
    8369 WTD1 3233 TIP3 H1   HT     0.417000        1.0079           0
    8370 WTD1 3233 TIP3 H2   HT     0.417000        1.0079           0
    8371 WTD1 3234 TIP3 OH2  OT    -0.834000       15.9994           0
    8372 WTD1 3234 TIP3 H1   HT     0.417000        1.0079           0
    8373 WTD1 3234 TIP3 H2   HT     0.417000        1.0079           0
    8374 WTD1 3241 TIP3 OH2  OT    -0.834000       15.9994           0
    8375 WTD1 3241 TIP3 H1   HT     0.417000        1.0079           0
    8376 WTD1 3241 TIP3 H2   HT     0.417000        1.0079           0
    8377 WTD1 3244 TIP3 OH2  OT    -0.834000       15.9994           0
    8378 WTD1 3244 TIP3 H1   HT     0.417000        1.0079           0
    8379 WTD1 3244 TIP3 H2   HT     0.417000        1.0079           0
    8380 WTD1 3257 TIP3 OH2  OT    -0.834000       15.9994           0
    8381 WTD1 3257 TIP3 H1   HT     0.417000        1.0079           0
    8382 WTD1 3257 TIP3 H2   HT     0.417000        1.0079           0
    8383 WTD1 3258 TIP3 OH2  OT    -0.834000       15.9994           0
    8384 WTD1 3258 TIP3 H1   HT     0.417000        1.0079           0
    8385 WTD1 3258 TIP3 H2   HT     0.417000        1.0079           0
    8386 WTD1 3262 TIP3 OH2  OT    -0.834000       15.9994           0
    8387 WTD1 3262 TIP3 H1   HT     0.417000        1.0079           0
    8388 WTD1 3262 TIP3 H2   HT     0.417000        1.0079           0
    8389 WTD1 3274 TIP3 OH2  OT    -0.834000       15.9994           0
    8390 WTD1 3274 TIP3 H1   HT     0.417000        1.0079           0
    8391 WTD1 3274 TIP3 H2   HT     0.417000        1.0079           0
    8392 WTD1 3276 TIP3 OH2  OT    -0.834000       15.9994           0
    8393 WTD1 3276 TIP3 H1   HT     0.417000        1.0079           0
    8394 WTD1 3276 TIP3 H2   HT     0.417000        1.0079           0
    8395 WTD1 3277 TIP3 OH2  OT    -0.834000       15.9994           0
    8396 WTD1 3277 TIP3 H1   HT     0.417000        1.0079           0
    8397 WTD1 3277 TIP3 H2   HT     0.417000        1.0079           0
    8398 WTD1 3278 TIP3 OH2  OT    -0.834000       15.9994           0
    8399 WTD1 3278 TIP3 H1   HT     0.417000        1.0079           0
    8400 WTD1 3278 TIP3 H2   HT     0.417000        1.0079           0
    8401 WTD1 3279 TIP3 OH2  OT    -0.834000       15.9994           0
    8402 WTD1 3279 TIP3 H1   HT     0.417000        1.0079           0
    8403 WTD1 3279 TIP3 H2   HT     0.417000        1.0079           0
    8404 WTD1 3280 TIP3 OH2  OT    -0.834000       15.9994           0
    8405 WTD1 3280 TIP3 H1   HT     0.417000        1.0079           0
    8406 WTD1 3280 TIP3 H2   HT     0.417000        1.0079           0
    8407 WTD1 3282 TIP3 OH2  OT    -0.834000       15.9994           0
    8408 WTD1 3282 TIP3 H1   HT     0.417000        1.0079           0
    8409 WTD1 3282 TIP3 H2   HT     0.417000        1.0079           0
    8410 WTD1 3283 TIP3 OH2  OT    -0.834000       15.9994           0
    8411 WTD1 3283 TIP3 H1   HT     0.417000        1.0079           0
    8412 WTD1 3283 TIP3 H2   HT     0.417000        1.0079           0
    8413 WTD1 3296 TIP3 OH2  OT    -0.834000       15.9994           0
    8414 WTD1 3296 TIP3 H1   HT     0.417000        1.0079           0
    8415 WTD1 3296 TIP3 H2   HT     0.417000        1.0079           0
    8416 WTD1 3298 TIP3 OH2  OT    -0.834000       15.9994           0
    8417 WTD1 3298 TIP3 H1   HT     0.417000        1.0079           0
    8418 WTD1 3298 TIP3 H2   HT     0.417000        1.0079           0
    8419 WTD1 3301 TIP3 OH2  OT    -0.834000       15.9994           0
    8420 WTD1 3301 TIP3 H1   HT     0.417000        1.0079           0
    8421 WTD1 3301 TIP3 H2   HT     0.417000        1.0079           0
    8422 WTD1 3302 TIP3 OH2  OT    -0.834000       15.9994           0
    8423 WTD1 3302 TIP3 H1   HT     0.417000        1.0079           0
    8424 WTD1 3302 TIP3 H2   HT     0.417000        1.0079           0
    8425 WTD1 3317 TIP3 OH2  OT    -0.834000       15.9994           0
    8426 WTD1 3317 TIP3 H1   HT     0.417000        1.0079           0
    8427 WTD1 3317 TIP3 H2   HT     0.417000        1.0079           0
    8428 WTD1 3319 TIP3 OH2  OT    -0.834000       15.9994           0
    8429 WTD1 3319 TIP3 H1   HT     0.417000        1.0079           0
    8430 WTD1 3319 TIP3 H2   HT     0.417000        1.0079           0
    8431 WTD1 3320 TIP3 OH2  OT    -0.834000       15.9994           0
    8432 WTD1 3320 TIP3 H1   HT     0.417000        1.0079           0
    8433 WTD1 3320 TIP3 H2   HT     0.417000        1.0079           0
    8434 WTD1 3322 TIP3 OH2  OT    -0.834000       15.9994           0
    8435 WTD1 3322 TIP3 H1   HT     0.417000        1.0079           0
    8436 WTD1 3322 TIP3 H2   HT     0.417000        1.0079           0
    8437 WTD1 3323 TIP3 OH2  OT    -0.834000       15.9994           0
    8438 WTD1 3323 TIP3 H1   HT     0.417000        1.0079           0
    8439 WTD1 3323 TIP3 H2   HT     0.417000        1.0079           0
    8440 WTD1 3337 TIP3 OH2  OT    -0.834000       15.9994           0
    8441 WTD1 3337 TIP3 H1   HT     0.417000        1.0079           0
    8442 WTD1 3337 TIP3 H2   HT     0.417000        1.0079           0
    8443 WTD1 3341 TIP3 OH2  OT    -0.834000       15.9994           0
    8444 WTD1 3341 TIP3 H1   HT     0.417000        1.0079           0
    8445 WTD1 3341 TIP3 H2   HT     0.417000        1.0079           0
    8446 WTD1 3342 TIP3 OH2  OT    -0.834000       15.9994           0
    8447 WTD1 3342 TIP3 H1   HT     0.417000        1.0079           0
    8448 WTD1 3342 TIP3 H2   HT     0.417000        1.0079           0
    8449 WTD1 3344 TIP3 OH2  OT    -0.834000       15.9994           0
    8450 WTD1 3344 TIP3 H1   HT     0.417000        1.0079           0
    8451 WTD1 3344 TIP3 H2   HT     0.417000        1.0079           0
    8452 WTD1 3360 TIP3 OH2  OT    -0.834000       15.9994           0
    8453 WTD1 3360 TIP3 H1   HT     0.417000        1.0079           0
    8454 WTD1 3360 TIP3 H2   HT     0.417000        1.0079           0
    8455 WTD1 3361 TIP3 OH2  OT    -0.834000       15.9994           0
    8456 WTD1 3361 TIP3 H1   HT     0.417000        1.0079           0
    8457 WTD1 3361 TIP3 H2   HT     0.417000        1.0079           0
    8458 WTD1 3363 TIP3 OH2  OT    -0.834000       15.9994           0
    8459 WTD1 3363 TIP3 H1   HT     0.417000        1.0079           0
    8460 WTD1 3363 TIP3 H2   HT     0.417000        1.0079           0
    8461 WTD1 3364 TIP3 OH2  OT    -0.834000       15.9994           0
    8462 WTD1 3364 TIP3 H1   HT     0.417000        1.0079           0
    8463 WTD1 3364 TIP3 H2   HT     0.417000        1.0079           0
    8464 WTD1 3381 TIP3 OH2  OT    -0.834000       15.9994           0
    8465 WTD1 3381 TIP3 H1   HT     0.417000        1.0079           0
    8466 WTD1 3381 TIP3 H2   HT     0.417000        1.0079           0
    8467 WTD1 3382 TIP3 OH2  OT    -0.834000       15.9994           0
    8468 WTD1 3382 TIP3 H1   HT     0.417000        1.0079           0
    8469 WTD1 3382 TIP3 H2   HT     0.417000        1.0079           0
    8470 WTD1 3383 TIP3 OH2  OT    -0.834000       15.9994           0
    8471 WTD1 3383 TIP3 H1   HT     0.417000        1.0079           0
    8472 WTD1 3383 TIP3 H2   HT     0.417000        1.0079           0
    8473 WTD1 3384 TIP3 OH2  OT    -0.834000       15.9994           0
    8474 WTD1 3384 TIP3 H1   HT     0.417000        1.0079           0
    8475 WTD1 3384 TIP3 H2   HT     0.417000        1.0079           0
    8476 WTD1 3402 TIP3 OH2  OT    -0.834000       15.9994           0
    8477 WTD1 3402 TIP3 H1   HT     0.417000        1.0079           0
    8478 WTD1 3402 TIP3 H2   HT     0.417000        1.0079           0
    8479 WTD1 3404 TIP3 OH2  OT    -0.834000       15.9994           0
    8480 WTD1 3404 TIP3 H1   HT     0.417000        1.0079           0
    8481 WTD1 3404 TIP3 H2   HT     0.417000        1.0079           0
    8482 WTD1 3405 TIP3 OH2  OT    -0.834000       15.9994           0
    8483 WTD1 3405 TIP3 H1   HT     0.417000        1.0079           0
    8484 WTD1 3405 TIP3 H2   HT     0.417000        1.0079           0
    8485 WTD1 3407 TIP3 OH2  OT    -0.834000       15.9994           0
    8486 WTD1 3407 TIP3 H1   HT     0.417000        1.0079           0
    8487 WTD1 3407 TIP3 H2   HT     0.417000        1.0079           0
    8488 WTD1 3408 TIP3 OH2  OT    -0.834000       15.9994           0
    8489 WTD1 3408 TIP3 H1   HT     0.417000        1.0079           0
    8490 WTD1 3408 TIP3 H2   HT     0.417000        1.0079           0
    8491 WTD1 3409 TIP3 OH2  OT    -0.834000       15.9994           0
    8492 WTD1 3409 TIP3 H1   HT     0.417000        1.0079           0
    8493 WTD1 3409 TIP3 H2   HT     0.417000        1.0079           0
    8494 WTD1 3424 TIP3 OH2  OT    -0.834000       15.9994           0
    8495 WTD1 3424 TIP3 H1   HT     0.417000        1.0079           0
    8496 WTD1 3424 TIP3 H2   HT     0.417000        1.0079           0
    8497 WTD1 3426 TIP3 OH2  OT    -0.834000       15.9994           0
    8498 WTD1 3426 TIP3 H1   HT     0.417000        1.0079           0
    8499 WTD1 3426 TIP3 H2   HT     0.417000        1.0079           0
    8500 WTD1 3427 TIP3 OH2  OT    -0.834000       15.9994           0
    8501 WTD1 3427 TIP3 H1   HT     0.417000        1.0079           0
    8502 WTD1 3427 TIP3 H2   HT     0.417000        1.0079           0
    8503 WTD1 3428 TIP3 OH2  OT    -0.834000       15.9994           0
    8504 WTD1 3428 TIP3 H1   HT     0.417000        1.0079           0
    8505 WTD1 3428 TIP3 H2   HT     0.417000        1.0079           0
    8506 WTD1 3429 TIP3 OH2  OT    -0.834000       15.9994           0
    8507 WTD1 3429 TIP3 H1   HT     0.417000        1.0079           0
    8508 WTD1 3429 TIP3 H2   HT     0.417000        1.0079           0
    8509 WTD1 3442 TIP3 OH2  OT    -0.834000       15.9994           0
    8510 WTD1 3442 TIP3 H1   HT     0.417000        1.0079           0
    8511 WTD1 3442 TIP3 H2   HT     0.417000        1.0079           0
    8512 WTD1 3444 TIP3 OH2  OT    -0.834000       15.9994           0
    8513 WTD1 3444 TIP3 H1   HT     0.417000        1.0079           0
    8514 WTD1 3444 TIP3 H2   HT     0.417000        1.0079           0
    8515 WTD1 3445 TIP3 OH2  OT    -0.834000       15.9994           0
    8516 WTD1 3445 TIP3 H1   HT     0.417000        1.0079           0
    8517 WTD1 3445 TIP3 H2   HT     0.417000        1.0079           0
    8518 WTD1 3446 TIP3 OH2  OT    -0.834000       15.9994           0
    8519 WTD1 3446 TIP3 H1   HT     0.417000        1.0079           0
    8520 WTD1 3446 TIP3 H2   HT     0.417000        1.0079           0
    8521 WTD1 3447 TIP3 OH2  OT    -0.834000       15.9994           0
    8522 WTD1 3447 TIP3 H1   HT     0.417000        1.0079           0
    8523 WTD1 3447 TIP3 H2   HT     0.417000        1.0079           0
    8524 WTD1 3450 TIP3 OH2  OT    -0.834000       15.9994           0
    8525 WTD1 3450 TIP3 H1   HT     0.417000        1.0079           0
    8526 WTD1 3450 TIP3 H2   HT     0.417000        1.0079           0
    8527 WTD1 3465 TIP3 OH2  OT    -0.834000       15.9994           0
    8528 WTD1 3465 TIP3 H1   HT     0.417000        1.0079           0
    8529 WTD1 3465 TIP3 H2   HT     0.417000        1.0079           0
    8530 WTD1 3466 TIP3 OH2  OT    -0.834000       15.9994           0
    8531 WTD1 3466 TIP3 H1   HT     0.417000        1.0079           0
    8532 WTD1 3466 TIP3 H2   HT     0.417000        1.0079           0
    8533 WTD1 3467 TIP3 OH2  OT    -0.834000       15.9994           0
    8534 WTD1 3467 TIP3 H1   HT     0.417000        1.0079           0
    8535 WTD1 3467 TIP3 H2   HT     0.417000        1.0079           0
    8536 WTD1 3470 TIP3 OH2  OT    -0.834000       15.9994           0
    8537 WTD1 3470 TIP3 H1   HT     0.417000        1.0079           0
    8538 WTD1 3470 TIP3 H2   HT     0.417000        1.0079           0
    8539 WTD1 3484 TIP3 OH2  OT    -0.834000       15.9994           0
    8540 WTD1 3484 TIP3 H1   HT     0.417000        1.0079           0
    8541 WTD1 3484 TIP3 H2   HT     0.417000        1.0079           0
    8542 WTD1 3486 TIP3 OH2  OT    -0.834000       15.9994           0
    8543 WTD1 3486 TIP3 H1   HT     0.417000        1.0079           0
    8544 WTD1 3486 TIP3 H2   HT     0.417000        1.0079           0
    8545 WTD1 3488 TIP3 OH2  OT    -0.834000       15.9994           0
    8546 WTD1 3488 TIP3 H1   HT     0.417000        1.0079           0
    8547 WTD1 3488 TIP3 H2   HT     0.417000        1.0079           0
    8548 WTD1 3490 TIP3 OH2  OT    -0.834000       15.9994           0
    8549 WTD1 3490 TIP3 H1   HT     0.417000        1.0079           0
    8550 WTD1 3490 TIP3 H2   HT     0.417000        1.0079           0
    8551 WTD1 3492 TIP3 OH2  OT    -0.834000       15.9994           0
    8552 WTD1 3492 TIP3 H1   HT     0.417000        1.0079           0
    8553 WTD1 3492 TIP3 H2   HT     0.417000        1.0079           0
    8554 WTD1 3508 TIP3 OH2  OT    -0.834000       15.9994           0
    8555 WTD1 3508 TIP3 H1   HT     0.417000        1.0079           0
    8556 WTD1 3508 TIP3 H2   HT     0.417000        1.0079           0
    8557 WTD1 3511 TIP3 OH2  OT    -0.834000       15.9994           0
    8558 WTD1 3511 TIP3 H1   HT     0.417000        1.0079           0
    8559 WTD1 3511 TIP3 H2   HT     0.417000        1.0079           0
    8560 WTD1 3512 TIP3 OH2  OT    -0.834000       15.9994           0
    8561 WTD1 3512 TIP3 H1   HT     0.417000        1.0079           0
    8562 WTD1 3512 TIP3 H2   HT     0.417000        1.0079           0
    8563 WTD1 3514 TIP3 OH2  OT    -0.834000       15.9994           0
    8564 WTD1 3514 TIP3 H1   HT     0.417000        1.0079           0
    8565 WTD1 3514 TIP3 H2   HT     0.417000        1.0079           0
    8566 WTD1 3516 TIP3 OH2  OT    -0.834000       15.9994           0
    8567 WTD1 3516 TIP3 H1   HT     0.417000        1.0079           0
    8568 WTD1 3516 TIP3 H2   HT     0.417000        1.0079           0
    8569 WTD1 3526 TIP3 OH2  OT    -0.834000       15.9994           0
    8570 WTD1 3526 TIP3 H1   HT     0.417000        1.0079           0
    8571 WTD1 3526 TIP3 H2   HT     0.417000        1.0079           0
    8572 WTD1 3527 TIP3 OH2  OT    -0.834000       15.9994           0
    8573 WTD1 3527 TIP3 H1   HT     0.417000        1.0079           0
    8574 WTD1 3527 TIP3 H2   HT     0.417000        1.0079           0
    8575 WTD1 3530 TIP3 OH2  OT    -0.834000       15.9994           0
    8576 WTD1 3530 TIP3 H1   HT     0.417000        1.0079           0
    8577 WTD1 3530 TIP3 H2   HT     0.417000        1.0079           0
    8578 WTD1 3531 TIP3 OH2  OT    -0.834000       15.9994           0
    8579 WTD1 3531 TIP3 H1   HT     0.417000        1.0079           0
    8580 WTD1 3531 TIP3 H2   HT     0.417000        1.0079           0
    8581 WTD1 3533 TIP3 OH2  OT    -0.834000       15.9994           0
    8582 WTD1 3533 TIP3 H1   HT     0.417000        1.0079           0
    8583 WTD1 3533 TIP3 H2   HT     0.417000        1.0079           0
    8584 WTD1 3534 TIP3 OH2  OT    -0.834000       15.9994           0
    8585 WTD1 3534 TIP3 H1   HT     0.417000        1.0079           0
    8586 WTD1 3534 TIP3 H2   HT     0.417000        1.0079           0
    8587 WTD1 3536 TIP3 OH2  OT    -0.834000       15.9994           0
    8588 WTD1 3536 TIP3 H1   HT     0.417000        1.0079           0
    8589 WTD1 3536 TIP3 H2   HT     0.417000        1.0079           0
    8590 WTD1 3545 TIP3 OH2  OT    -0.834000       15.9994           0
    8591 WTD1 3545 TIP3 H1   HT     0.417000        1.0079           0
    8592 WTD1 3545 TIP3 H2   HT     0.417000        1.0079           0
    8593 WTD1 3548 TIP3 OH2  OT    -0.834000       15.9994           0
    8594 WTD1 3548 TIP3 H1   HT     0.417000        1.0079           0
    8595 WTD1 3548 TIP3 H2   HT     0.417000        1.0079           0
    8596 WTD1 3550 TIP3 OH2  OT    -0.834000       15.9994           0
    8597 WTD1 3550 TIP3 H1   HT     0.417000        1.0079           0
    8598 WTD1 3550 TIP3 H2   HT     0.417000        1.0079           0
    8599 WTD1 3554 TIP3 OH2  OT    -0.834000       15.9994           0
    8600 WTD1 3554 TIP3 H1   HT     0.417000        1.0079           0
    8601 WTD1 3554 TIP3 H2   HT     0.417000        1.0079           0
    8602 WTD1 3569 TIP3 OH2  OT    -0.834000       15.9994           0
    8603 WTD1 3569 TIP3 H1   HT     0.417000        1.0079           0
    8604 WTD1 3569 TIP3 H2   HT     0.417000        1.0079           0
    8605 WTD1 3570 TIP3 OH2  OT    -0.834000       15.9994           0
    8606 WTD1 3570 TIP3 H1   HT     0.417000        1.0079           0
    8607 WTD1 3570 TIP3 H2   HT     0.417000        1.0079           0
    8608 WTD1 3572 TIP3 OH2  OT    -0.834000       15.9994           0
    8609 WTD1 3572 TIP3 H1   HT     0.417000        1.0079           0
    8610 WTD1 3572 TIP3 H2   HT     0.417000        1.0079           0
    8611 WTD1 3573 TIP3 OH2  OT    -0.834000       15.9994           0
    8612 WTD1 3573 TIP3 H1   HT     0.417000        1.0079           0
    8613 WTD1 3573 TIP3 H2   HT     0.417000        1.0079           0
    8614 WTD1 3574 TIP3 OH2  OT    -0.834000       15.9994           0
    8615 WTD1 3574 TIP3 H1   HT     0.417000        1.0079           0
    8616 WTD1 3574 TIP3 H2   HT     0.417000        1.0079           0
    8617 WTD1 3575 TIP3 OH2  OT    -0.834000       15.9994           0
    8618 WTD1 3575 TIP3 H1   HT     0.417000        1.0079           0
    8619 WTD1 3575 TIP3 H2   HT     0.417000        1.0079           0
    8620 WTD1 3591 TIP3 OH2  OT    -0.834000       15.9994           0
    8621 WTD1 3591 TIP3 H1   HT     0.417000        1.0079           0
    8622 WTD1 3591 TIP3 H2   HT     0.417000        1.0079           0
    8623 WTD1 3592 TIP3 OH2  OT    -0.834000       15.9994           0
    8624 WTD1 3592 TIP3 H1   HT     0.417000        1.0079           0
    8625 WTD1 3592 TIP3 H2   HT     0.417000        1.0079           0
    8626 WTD1 3593 TIP3 OH2  OT    -0.834000       15.9994           0
    8627 WTD1 3593 TIP3 H1   HT     0.417000        1.0079           0
    8628 WTD1 3593 TIP3 H2   HT     0.417000        1.0079           0
    8629 WTD1 3594 TIP3 OH2  OT    -0.834000       15.9994           0
    8630 WTD1 3594 TIP3 H1   HT     0.417000        1.0079           0
    8631 WTD1 3594 TIP3 H2   HT     0.417000        1.0079           0
    8632 WTD1 3595 TIP3 OH2  OT    -0.834000       15.9994           0
    8633 WTD1 3595 TIP3 H1   HT     0.417000        1.0079           0
    8634 WTD1 3595 TIP3 H2   HT     0.417000        1.0079           0
    8635 WTD1 3596 TIP3 OH2  OT    -0.834000       15.9994           0
    8636 WTD1 3596 TIP3 H1   HT     0.417000        1.0079           0
    8637 WTD1 3596 TIP3 H2   HT     0.417000        1.0079           0
    8638 WTD1 3597 TIP3 OH2  OT    -0.834000       15.9994           0
    8639 WTD1 3597 TIP3 H1   HT     0.417000        1.0079           0
    8640 WTD1 3597 TIP3 H2   HT     0.417000        1.0079           0
    8641 WTD1 3612 TIP3 OH2  OT    -0.834000       15.9994           0
    8642 WTD1 3612 TIP3 H1   HT     0.417000        1.0079           0
    8643 WTD1 3612 TIP3 H2   HT     0.417000        1.0079           0
    8644 WTD1 3614 TIP3 OH2  OT    -0.834000       15.9994           0
    8645 WTD1 3614 TIP3 H1   HT     0.417000        1.0079           0
    8646 WTD1 3614 TIP3 H2   HT     0.417000        1.0079           0
    8647 WTD1 3619 TIP3 OH2  OT    -0.834000       15.9994           0
    8648 WTD1 3619 TIP3 H1   HT     0.417000        1.0079           0
    8649 WTD1 3619 TIP3 H2   HT     0.417000        1.0079           0
    8650 WTD1 3633 TIP3 OH2  OT    -0.834000       15.9994           0
    8651 WTD1 3633 TIP3 H1   HT     0.417000        1.0079           0
    8652 WTD1 3633 TIP3 H2   HT     0.417000        1.0079           0
    8653 WTD1 3636 TIP3 OH2  OT    -0.834000       15.9994           0
    8654 WTD1 3636 TIP3 H1   HT     0.417000        1.0079           0
    8655 WTD1 3636 TIP3 H2   HT     0.417000        1.0079           0
    8656 WTD1 3638 TIP3 OH2  OT    -0.834000       15.9994           0
    8657 WTD1 3638 TIP3 H1   HT     0.417000        1.0079           0
    8658 WTD1 3638 TIP3 H2   HT     0.417000        1.0079           0
    8659 WTD1 3650 TIP3 OH2  OT    -0.834000       15.9994           0
    8660 WTD1 3650 TIP3 H1   HT     0.417000        1.0079           0
    8661 WTD1 3650 TIP3 H2   HT     0.417000        1.0079           0
    8662 WTD1 3651 TIP3 OH2  OT    -0.834000       15.9994           0
    8663 WTD1 3651 TIP3 H1   HT     0.417000        1.0079           0
    8664 WTD1 3651 TIP3 H2   HT     0.417000        1.0079           0
    8665 WTD1 3660 TIP3 OH2  OT    -0.834000       15.9994           0
    8666 WTD1 3660 TIP3 H1   HT     0.417000        1.0079           0
    8667 WTD1 3660 TIP3 H2   HT     0.417000        1.0079           0
    8668 WTD1 3674 TIP3 OH2  OT    -0.834000       15.9994           0
    8669 WTD1 3674 TIP3 H1   HT     0.417000        1.0079           0
    8670 WTD1 3674 TIP3 H2   HT     0.417000        1.0079           0
    8671 WTD1 3677 TIP3 OH2  OT    -0.834000       15.9994           0
    8672 WTD1 3677 TIP3 H1   HT     0.417000        1.0079           0
    8673 WTD1 3677 TIP3 H2   HT     0.417000        1.0079           0
    8674 WTD1 3681 TIP3 OH2  OT    -0.834000       15.9994           0
    8675 WTD1 3681 TIP3 H1   HT     0.417000        1.0079           0
    8676 WTD1 3681 TIP3 H2   HT     0.417000        1.0079           0
    8677 WTD1 3693 TIP3 OH2  OT    -0.834000       15.9994           0
    8678 WTD1 3693 TIP3 H1   HT     0.417000        1.0079           0
    8679 WTD1 3693 TIP3 H2   HT     0.417000        1.0079           0
    8680 WTD1 3697 TIP3 OH2  OT    -0.834000       15.9994           0
    8681 WTD1 3697 TIP3 H1   HT     0.417000        1.0079           0
    8682 WTD1 3697 TIP3 H2   HT     0.417000        1.0079           0
    8683 WTD1 3698 TIP3 OH2  OT    -0.834000       15.9994           0
    8684 WTD1 3698 TIP3 H1   HT     0.417000        1.0079           0
    8685 WTD1 3698 TIP3 H2   HT     0.417000        1.0079           0
    8686 WTD1 3700 TIP3 OH2  OT    -0.834000       15.9994           0
    8687 WTD1 3700 TIP3 H1   HT     0.417000        1.0079           0
    8688 WTD1 3700 TIP3 H2   HT     0.417000        1.0079           0
    8689 WTD1 3701 TIP3 OH2  OT    -0.834000       15.9994           0
    8690 WTD1 3701 TIP3 H1   HT     0.417000        1.0079           0
    8691 WTD1 3701 TIP3 H2   HT     0.417000        1.0079           0
    8692 WTD1 3718 TIP3 OH2  OT    -0.834000       15.9994           0
    8693 WTD1 3718 TIP3 H1   HT     0.417000        1.0079           0
    8694 WTD1 3718 TIP3 H2   HT     0.417000        1.0079           0
    8695 WTD1 3719 TIP3 OH2  OT    -0.834000       15.9994           0
    8696 WTD1 3719 TIP3 H1   HT     0.417000        1.0079           0
    8697 WTD1 3719 TIP3 H2   HT     0.417000        1.0079           0
    8698 WTD1 3720 TIP3 OH2  OT    -0.834000       15.9994           0
    8699 WTD1 3720 TIP3 H1   HT     0.417000        1.0079           0
    8700 WTD1 3720 TIP3 H2   HT     0.417000        1.0079           0
    8701 WTD1 3722 TIP3 OH2  OT    -0.834000       15.9994           0
    8702 WTD1 3722 TIP3 H1   HT     0.417000        1.0079           0
    8703 WTD1 3722 TIP3 H2   HT     0.417000        1.0079           0
    8704 WTD1 3723 TIP3 OH2  OT    -0.834000       15.9994           0
    8705 WTD1 3723 TIP3 H1   HT     0.417000        1.0079           0
    8706 WTD1 3723 TIP3 H2   HT     0.417000        1.0079           0
    8707 WTD1 3737 TIP3 OH2  OT    -0.834000       15.9994           0
    8708 WTD1 3737 TIP3 H1   HT     0.417000        1.0079           0
    8709 WTD1 3737 TIP3 H2   HT     0.417000        1.0079           0
    8710 WTD1 3740 TIP3 OH2  OT    -0.834000       15.9994           0
    8711 WTD1 3740 TIP3 H1   HT     0.417000        1.0079           0
    8712 WTD1 3740 TIP3 H2   HT     0.417000        1.0079           0
    8713 WTD1 3757 TIP3 OH2  OT    -0.834000       15.9994           0
    8714 WTD1 3757 TIP3 H1   HT     0.417000        1.0079           0
    8715 WTD1 3757 TIP3 H2   HT     0.417000        1.0079           0
    8716 WTD1 3758 TIP3 OH2  OT    -0.834000       15.9994           0
    8717 WTD1 3758 TIP3 H1   HT     0.417000        1.0079           0
    8718 WTD1 3758 TIP3 H2   HT     0.417000        1.0079           0
    8719 WTD1 3762 TIP3 OH2  OT    -0.834000       15.9994           0
    8720 WTD1 3762 TIP3 H1   HT     0.417000        1.0079           0
    8721 WTD1 3762 TIP3 H2   HT     0.417000        1.0079           0
    8722 WTD1 3763 TIP3 OH2  OT    -0.834000       15.9994           0
    8723 WTD1 3763 TIP3 H1   HT     0.417000        1.0079           0
    8724 WTD1 3763 TIP3 H2   HT     0.417000        1.0079           0
    8725 WTD1 3764 TIP3 OH2  OT    -0.834000       15.9994           0
    8726 WTD1 3764 TIP3 H1   HT     0.417000        1.0079           0
    8727 WTD1 3764 TIP3 H2   HT     0.417000        1.0079           0
    8728 WTD1 3776 TIP3 OH2  OT    -0.834000       15.9994           0
    8729 WTD1 3776 TIP3 H1   HT     0.417000        1.0079           0
    8730 WTD1 3776 TIP3 H2   HT     0.417000        1.0079           0
    8731 WTD1 3779 TIP3 OH2  OT    -0.834000       15.9994           0
    8732 WTD1 3779 TIP3 H1   HT     0.417000        1.0079           0
    8733 WTD1 3779 TIP3 H2   HT     0.417000        1.0079           0
    8734 WTD1 3783 TIP3 OH2  OT    -0.834000       15.9994           0
    8735 WTD1 3783 TIP3 H1   HT     0.417000        1.0079           0
    8736 WTD1 3783 TIP3 H2   HT     0.417000        1.0079           0
    8737 WTD1 3785 TIP3 OH2  OT    -0.834000       15.9994           0
    8738 WTD1 3785 TIP3 H1   HT     0.417000        1.0079           0
    8739 WTD1 3785 TIP3 H2   HT     0.417000        1.0079           0
    8740 WTD1 3798 TIP3 OH2  OT    -0.834000       15.9994           0
    8741 WTD1 3798 TIP3 H1   HT     0.417000        1.0079           0
    8742 WTD1 3798 TIP3 H2   HT     0.417000        1.0079           0
    8743 WTD1 3800 TIP3 OH2  OT    -0.834000       15.9994           0
    8744 WTD1 3800 TIP3 H1   HT     0.417000        1.0079           0
    8745 WTD1 3800 TIP3 H2   HT     0.417000        1.0079           0
    8746 WTD1 3801 TIP3 OH2  OT    -0.834000       15.9994           0
    8747 WTD1 3801 TIP3 H1   HT     0.417000        1.0079           0
    8748 WTD1 3801 TIP3 H2   HT     0.417000        1.0079           0
    8749 WTD1 3802 TIP3 OH2  OT    -0.834000       15.9994           0
    8750 WTD1 3802 TIP3 H1   HT     0.417000        1.0079           0
    8751 WTD1 3802 TIP3 H2   HT     0.417000        1.0079           0
    8752 WTD1 3804 TIP3 OH2  OT    -0.834000       15.9994           0
    8753 WTD1 3804 TIP3 H1   HT     0.417000        1.0079           0
    8754 WTD1 3804 TIP3 H2   HT     0.417000        1.0079           0
    8755 WTD1 3805 TIP3 OH2  OT    -0.834000       15.9994           0
    8756 WTD1 3805 TIP3 H1   HT     0.417000        1.0079           0
    8757 WTD1 3805 TIP3 H2   HT     0.417000        1.0079           0
    8758 WTD1 3807 TIP3 OH2  OT    -0.834000       15.9994           0
    8759 WTD1 3807 TIP3 H1   HT     0.417000        1.0079           0
    8760 WTD1 3807 TIP3 H2   HT     0.417000        1.0079           0
    8761 WTD1 3809 TIP3 OH2  OT    -0.834000       15.9994           0
    8762 WTD1 3809 TIP3 H1   HT     0.417000        1.0079           0
    8763 WTD1 3809 TIP3 H2   HT     0.417000        1.0079           0
    8764 WTD1 3821 TIP3 OH2  OT    -0.834000       15.9994           0
    8765 WTD1 3821 TIP3 H1   HT     0.417000        1.0079           0
    8766 WTD1 3821 TIP3 H2   HT     0.417000        1.0079           0
    8767 WTD1 3823 TIP3 OH2  OT    -0.834000       15.9994           0
    8768 WTD1 3823 TIP3 H1   HT     0.417000        1.0079           0
    8769 WTD1 3823 TIP3 H2   HT     0.417000        1.0079           0
    8770 WTD1 3826 TIP3 OH2  OT    -0.834000       15.9994           0
    8771 WTD1 3826 TIP3 H1   HT     0.417000        1.0079           0
    8772 WTD1 3826 TIP3 H2   HT     0.417000        1.0079           0
    8773 WTD1 3827 TIP3 OH2  OT    -0.834000       15.9994           0
    8774 WTD1 3827 TIP3 H1   HT     0.417000        1.0079           0
    8775 WTD1 3827 TIP3 H2   HT     0.417000        1.0079           0
    8776 WTD1 3828 TIP3 OH2  OT    -0.834000       15.9994           0
    8777 WTD1 3828 TIP3 H1   HT     0.417000        1.0079           0
    8778 WTD1 3828 TIP3 H2   HT     0.417000        1.0079           0
    8779 WTD1 3829 TIP3 OH2  OT    -0.834000       15.9994           0
    8780 WTD1 3829 TIP3 H1   HT     0.417000        1.0079           0
    8781 WTD1 3829 TIP3 H2   HT     0.417000        1.0079           0
    8782 WTD1 3845 TIP3 OH2  OT    -0.834000       15.9994           0
    8783 WTD1 3845 TIP3 H1   HT     0.417000        1.0079           0
    8784 WTD1 3845 TIP3 H2   HT     0.417000        1.0079           0
    8785 WTD1 3846 TIP3 OH2  OT    -0.834000       15.9994           0
    8786 WTD1 3846 TIP3 H1   HT     0.417000        1.0079           0
    8787 WTD1 3846 TIP3 H2   HT     0.417000        1.0079           0
    8788 WTD1 3847 TIP3 OH2  OT    -0.834000       15.9994           0
    8789 WTD1 3847 TIP3 H1   HT     0.417000        1.0079           0
    8790 WTD1 3847 TIP3 H2   HT     0.417000        1.0079           0
    8791 WTD1 3848 TIP3 OH2  OT    -0.834000       15.9994           0
    8792 WTD1 3848 TIP3 H1   HT     0.417000        1.0079           0
    8793 WTD1 3848 TIP3 H2   HT     0.417000        1.0079           0
    8794 WTD1 3849 TIP3 OH2  OT    -0.834000       15.9994           0
    8795 WTD1 3849 TIP3 H1   HT     0.417000        1.0079           0
    8796 WTD1 3849 TIP3 H2   HT     0.417000        1.0079           0
    8797 WTD1 3863 TIP3 OH2  OT    -0.834000       15.9994           0
    8798 WTD1 3863 TIP3 H1   HT     0.417000        1.0079           0
    8799 WTD1 3863 TIP3 H2   HT     0.417000        1.0079           0
    8800 WTD1 3865 TIP3 OH2  OT    -0.834000       15.9994           0
    8801 WTD1 3865 TIP3 H1   HT     0.417000        1.0079           0
    8802 WTD1 3865 TIP3 H2   HT     0.417000        1.0079           0
    8803 WTD1 3867 TIP3 OH2  OT    -0.834000       15.9994           0
    8804 WTD1 3867 TIP3 H1   HT     0.417000        1.0079           0
    8805 WTD1 3867 TIP3 H2   HT     0.417000        1.0079           0
    8806 WTD1 3868 TIP3 OH2  OT    -0.834000       15.9994           0
    8807 WTD1 3868 TIP3 H1   HT     0.417000        1.0079           0
    8808 WTD1 3868 TIP3 H2   HT     0.417000        1.0079           0
    8809 WTD1 3869 TIP3 OH2  OT    -0.834000       15.9994           0
    8810 WTD1 3869 TIP3 H1   HT     0.417000        1.0079           0
    8811 WTD1 3869 TIP3 H2   HT     0.417000        1.0079           0
    8812 WTD1 3875 TIP3 OH2  OT    -0.834000       15.9994           0
    8813 WTD1 3875 TIP3 H1   HT     0.417000        1.0079           0
    8814 WTD1 3875 TIP3 H2   HT     0.417000        1.0079           0
    8815 WTD1 3882 TIP3 OH2  OT    -0.834000       15.9994           0
    8816 WTD1 3882 TIP3 H1   HT     0.417000        1.0079           0
    8817 WTD1 3882 TIP3 H2   HT     0.417000        1.0079           0
    8818 WTD1 3885 TIP3 OH2  OT    -0.834000       15.9994           0
    8819 WTD1 3885 TIP3 H1   HT     0.417000        1.0079           0
    8820 WTD1 3885 TIP3 H2   HT     0.417000        1.0079           0
    8821 WTD1 3886 TIP3 OH2  OT    -0.834000       15.9994           0
    8822 WTD1 3886 TIP3 H1   HT     0.417000        1.0079           0
    8823 WTD1 3886 TIP3 H2   HT     0.417000        1.0079           0
    8824 WTD1 3888 TIP3 OH2  OT    -0.834000       15.9994           0
    8825 WTD1 3888 TIP3 H1   HT     0.417000        1.0079           0
    8826 WTD1 3888 TIP3 H2   HT     0.417000        1.0079           0
    8827 WTD1 3889 TIP3 OH2  OT    -0.834000       15.9994           0
    8828 WTD1 3889 TIP3 H1   HT     0.417000        1.0079           0
    8829 WTD1 3889 TIP3 H2   HT     0.417000        1.0079           0
    8830 WTD1 3907 TIP3 OH2  OT    -0.834000       15.9994           0
    8831 WTD1 3907 TIP3 H1   HT     0.417000        1.0079           0
    8832 WTD1 3907 TIP3 H2   HT     0.417000        1.0079           0
    8833 WTD1 3909 TIP3 OH2  OT    -0.834000       15.9994           0
    8834 WTD1 3909 TIP3 H1   HT     0.417000        1.0079           0
    8835 WTD1 3909 TIP3 H2   HT     0.417000        1.0079           0
    8836 WTD1 3912 TIP3 OH2  OT    -0.834000       15.9994           0
    8837 WTD1 3912 TIP3 H1   HT     0.417000        1.0079           0
    8838 WTD1 3912 TIP3 H2   HT     0.417000        1.0079           0
    8839 WTD1 3928 TIP3 OH2  OT    -0.834000       15.9994           0
    8840 WTD1 3928 TIP3 H1   HT     0.417000        1.0079           0
    8841 WTD1 3928 TIP3 H2   HT     0.417000        1.0079           0
    8842 WTD1 3929 TIP3 OH2  OT    -0.834000       15.9994           0
    8843 WTD1 3929 TIP3 H1   HT     0.417000        1.0079           0
    8844 WTD1 3929 TIP3 H2   HT     0.417000        1.0079           0
    8845 WTD1 3930 TIP3 OH2  OT    -0.834000       15.9994           0
    8846 WTD1 3930 TIP3 H1   HT     0.417000        1.0079           0
    8847 WTD1 3930 TIP3 H2   HT     0.417000        1.0079           0
    8848 WTD1 3931 TIP3 OH2  OT    -0.834000       15.9994           0
    8849 WTD1 3931 TIP3 H1   HT     0.417000        1.0079           0
    8850 WTD1 3931 TIP3 H2   HT     0.417000        1.0079           0
    8851 WTD1 3932 TIP3 OH2  OT    -0.834000       15.9994           0
    8852 WTD1 3932 TIP3 H1   HT     0.417000        1.0079           0
    8853 WTD1 3932 TIP3 H2   HT     0.417000        1.0079           0
    8854 WTD1 3933 TIP3 OH2  OT    -0.834000       15.9994           0
    8855 WTD1 3933 TIP3 H1   HT     0.417000        1.0079           0
    8856 WTD1 3933 TIP3 H2   HT     0.417000        1.0079           0
    8857 WTD1 3949 TIP3 OH2  OT    -0.834000       15.9994           0
    8858 WTD1 3949 TIP3 H1   HT     0.417000        1.0079           0
    8859 WTD1 3949 TIP3 H2   HT     0.417000        1.0079           0
    8860 WTD1 3951 TIP3 OH2  OT    -0.834000       15.9994           0
    8861 WTD1 3951 TIP3 H1   HT     0.417000        1.0079           0
    8862 WTD1 3951 TIP3 H2   HT     0.417000        1.0079           0
    8863 WTD1 3955 TIP3 OH2  OT    -0.834000       15.9994           0
    8864 WTD1 3955 TIP3 H1   HT     0.417000        1.0079           0
    8865 WTD1 3955 TIP3 H2   HT     0.417000        1.0079           0
    8866 WTD1 3971 TIP3 OH2  OT    -0.834000       15.9994           0
    8867 WTD1 3971 TIP3 H1   HT     0.417000        1.0079           0
    8868 WTD1 3971 TIP3 H2   HT     0.417000        1.0079           0
    8869 WTD1 3975 TIP3 OH2  OT    -0.834000       15.9994           0
    8870 WTD1 3975 TIP3 H1   HT     0.417000        1.0079           0
    8871 WTD1 3975 TIP3 H2   HT     0.417000        1.0079           0
    8872 WTD1 3976 TIP3 OH2  OT    -0.834000       15.9994           0
    8873 WTD1 3976 TIP3 H1   HT     0.417000        1.0079           0
    8874 WTD1 3976 TIP3 H2   HT     0.417000        1.0079           0
    8875 WTD1 3977 TIP3 OH2  OT    -0.834000       15.9994           0
    8876 WTD1 3977 TIP3 H1   HT     0.417000        1.0079           0
    8877 WTD1 3977 TIP3 H2   HT     0.417000        1.0079           0
    8878 WTD1 3986 TIP3 OH2  OT    -0.834000       15.9994           0
    8879 WTD1 3986 TIP3 H1   HT     0.417000        1.0079           0
    8880 WTD1 3986 TIP3 H2   HT     0.417000        1.0079           0
    8881 WTD1 3992 TIP3 OH2  OT    -0.834000       15.9994           0
    8882 WTD1 3992 TIP3 H1   HT     0.417000        1.0079           0
    8883 WTD1 3992 TIP3 H2   HT     0.417000        1.0079           0
    8884 WTD1 3993 TIP3 OH2  OT    -0.834000       15.9994           0
    8885 WTD1 3993 TIP3 H1   HT     0.417000        1.0079           0
    8886 WTD1 3993 TIP3 H2   HT     0.417000        1.0079           0
    8887 WTD1 3996 TIP3 OH2  OT    -0.834000       15.9994           0
    8888 WTD1 3996 TIP3 H1   HT     0.417000        1.0079           0
    8889 WTD1 3996 TIP3 H2   HT     0.417000        1.0079           0
    8890 WTD1 4010 TIP3 OH2  OT    -0.834000       15.9994           0
    8891 WTD1 4010 TIP3 H1   HT     0.417000        1.0079           0
    8892 WTD1 4010 TIP3 H2   HT     0.417000        1.0079           0
    8893 WTD1 4011 TIP3 OH2  OT    -0.834000       15.9994           0
    8894 WTD1 4011 TIP3 H1   HT     0.417000        1.0079           0
    8895 WTD1 4011 TIP3 H2   HT     0.417000        1.0079           0
    8896 WTD1 4012 TIP3 OH2  OT    -0.834000       15.9994           0
    8897 WTD1 4012 TIP3 H1   HT     0.417000        1.0079           0
    8898 WTD1 4012 TIP3 H2   HT     0.417000        1.0079           0
    8899 WTD1 4014 TIP3 OH2  OT    -0.834000       15.9994           0
    8900 WTD1 4014 TIP3 H1   HT     0.417000        1.0079           0
    8901 WTD1 4014 TIP3 H2   HT     0.417000        1.0079           0
    8902 WTD1 4015 TIP3 OH2  OT    -0.834000       15.9994           0
    8903 WTD1 4015 TIP3 H1   HT     0.417000        1.0079           0
    8904 WTD1 4015 TIP3 H2   HT     0.417000        1.0079           0
    8905 WTD1 4016 TIP3 OH2  OT    -0.834000       15.9994           0
    8906 WTD1 4016 TIP3 H1   HT     0.417000        1.0079           0
    8907 WTD1 4016 TIP3 H2   HT     0.417000        1.0079           0
    8908 WTD1 4029 TIP3 OH2  OT    -0.834000       15.9994           0
    8909 WTD1 4029 TIP3 H1   HT     0.417000        1.0079           0
    8910 WTD1 4029 TIP3 H2   HT     0.417000        1.0079           0
    8911 WTD1 4030 TIP3 OH2  OT    -0.834000       15.9994           0
    8912 WTD1 4030 TIP3 H1   HT     0.417000        1.0079           0
    8913 WTD1 4030 TIP3 H2   HT     0.417000        1.0079           0
    8914 WTD1 4033 TIP3 OH2  OT    -0.834000       15.9994           0
    8915 WTD1 4033 TIP3 H1   HT     0.417000        1.0079           0
    8916 WTD1 4033 TIP3 H2   HT     0.417000        1.0079           0
    8917 WTD1 4035 TIP3 OH2  OT    -0.834000       15.9994           0
    8918 WTD1 4035 TIP3 H1   HT     0.417000        1.0079           0
    8919 WTD1 4035 TIP3 H2   HT     0.417000        1.0079           0
    8920 WTD1 4037 TIP3 OH2  OT    -0.834000       15.9994           0
    8921 WTD1 4037 TIP3 H1   HT     0.417000        1.0079           0
    8922 WTD1 4037 TIP3 H2   HT     0.417000        1.0079           0
    8923 WTD1 4053 TIP3 OH2  OT    -0.834000       15.9994           0
    8924 WTD1 4053 TIP3 H1   HT     0.417000        1.0079           0
    8925 WTD1 4053 TIP3 H2   HT     0.417000        1.0079           0
    8926 WTD1 4055 TIP3 OH2  OT    -0.834000       15.9994           0
    8927 WTD1 4055 TIP3 H1   HT     0.417000        1.0079           0
    8928 WTD1 4055 TIP3 H2   HT     0.417000        1.0079           0
    8929 WTD1 4057 TIP3 OH2  OT    -0.834000       15.9994           0
    8930 WTD1 4057 TIP3 H1   HT     0.417000        1.0079           0
    8931 WTD1 4057 TIP3 H2   HT     0.417000        1.0079           0
    8932 WTD1 4060 TIP3 OH2  OT    -0.834000       15.9994           0
    8933 WTD1 4060 TIP3 H1   HT     0.417000        1.0079           0
    8934 WTD1 4060 TIP3 H2   HT     0.417000        1.0079           0
    8935 WTD1 4072 TIP3 OH2  OT    -0.834000       15.9994           0
    8936 WTD1 4072 TIP3 H1   HT     0.417000        1.0079           0
    8937 WTD1 4072 TIP3 H2   HT     0.417000        1.0079           0
    8938 WTD1 4074 TIP3 OH2  OT    -0.834000       15.9994           0
    8939 WTD1 4074 TIP3 H1   HT     0.417000        1.0079           0
    8940 WTD1 4074 TIP3 H2   HT     0.417000        1.0079           0
    8941 WTD1 4076 TIP3 OH2  OT    -0.834000       15.9994           0
    8942 WTD1 4076 TIP3 H1   HT     0.417000        1.0079           0
    8943 WTD1 4076 TIP3 H2   HT     0.417000        1.0079           0
    8944 WTD1 4078 TIP3 OH2  OT    -0.834000       15.9994           0
    8945 WTD1 4078 TIP3 H1   HT     0.417000        1.0079           0
    8946 WTD1 4078 TIP3 H2   HT     0.417000        1.0079           0
    8947 WTD1 4093 TIP3 OH2  OT    -0.834000       15.9994           0
    8948 WTD1 4093 TIP3 H1   HT     0.417000        1.0079           0
    8949 WTD1 4093 TIP3 H2   HT     0.417000        1.0079           0
    8950 WTD1 4097 TIP3 OH2  OT    -0.834000       15.9994           0
    8951 WTD1 4097 TIP3 H1   HT     0.417000        1.0079           0
    8952 WTD1 4097 TIP3 H2   HT     0.417000        1.0079           0
    8953 WTD1 4098 TIP3 OH2  OT    -0.834000       15.9994           0
    8954 WTD1 4098 TIP3 H1   HT     0.417000        1.0079           0
    8955 WTD1 4098 TIP3 H2   HT     0.417000        1.0079           0
    8956 WTD1 4100 TIP3 OH2  OT    -0.834000       15.9994           0
    8957 WTD1 4100 TIP3 H1   HT     0.417000        1.0079           0
    8958 WTD1 4100 TIP3 H2   HT     0.417000        1.0079           0
    8959 WTD1 4116 TIP3 OH2  OT    -0.834000       15.9994           0
    8960 WTD1 4116 TIP3 H1   HT     0.417000        1.0079           0
    8961 WTD1 4116 TIP3 H2   HT     0.417000        1.0079           0
    8962 WTD1 4120 TIP3 OH2  OT    -0.834000       15.9994           0
    8963 WTD1 4120 TIP3 H1   HT     0.417000        1.0079           0
    8964 WTD1 4120 TIP3 H2   HT     0.417000        1.0079           0
    8965 WTD1 4121 TIP3 OH2  OT    -0.834000       15.9994           0
    8966 WTD1 4121 TIP3 H1   HT     0.417000        1.0079           0
    8967 WTD1 4121 TIP3 H2   HT     0.417000        1.0079           0
    8968 WTD1 4138 TIP3 OH2  OT    -0.834000       15.9994           0
    8969 WTD1 4138 TIP3 H1   HT     0.417000        1.0079           0
    8970 WTD1 4138 TIP3 H2   HT     0.417000        1.0079           0
    8971 WTD1 4139 TIP3 OH2  OT    -0.834000       15.9994           0
    8972 WTD1 4139 TIP3 H1   HT     0.417000        1.0079           0
    8973 WTD1 4139 TIP3 H2   HT     0.417000        1.0079           0
    8974 WTD1 4141 TIP3 OH2  OT    -0.834000       15.9994           0
    8975 WTD1 4141 TIP3 H1   HT     0.417000        1.0079           0
    8976 WTD1 4141 TIP3 H2   HT     0.417000        1.0079           0
    8977 WTD1 4142 TIP3 OH2  OT    -0.834000       15.9994           0
    8978 WTD1 4142 TIP3 H1   HT     0.417000        1.0079           0
    8979 WTD1 4142 TIP3 H2   HT     0.417000        1.0079           0
    8980 WTD1 4143 TIP3 OH2  OT    -0.834000       15.9994           0
    8981 WTD1 4143 TIP3 H1   HT     0.417000        1.0079           0
    8982 WTD1 4143 TIP3 H2   HT     0.417000        1.0079           0
    8983 WTD1 4157 TIP3 OH2  OT    -0.834000       15.9994           0
    8984 WTD1 4157 TIP3 H1   HT     0.417000        1.0079           0
    8985 WTD1 4157 TIP3 H2   HT     0.417000        1.0079           0
    8986 WTD1 4158 TIP3 OH2  OT    -0.834000       15.9994           0
    8987 WTD1 4158 TIP3 H1   HT     0.417000        1.0079           0
    8988 WTD1 4158 TIP3 H2   HT     0.417000        1.0079           0
    8989 WTD1 4159 TIP3 OH2  OT    -0.834000       15.9994           0
    8990 WTD1 4159 TIP3 H1   HT     0.417000        1.0079           0
    8991 WTD1 4159 TIP3 H2   HT     0.417000        1.0079           0
    8992 WTD1 4161 TIP3 OH2  OT    -0.834000       15.9994           0
    8993 WTD1 4161 TIP3 H1   HT     0.417000        1.0079           0
    8994 WTD1 4161 TIP3 H2   HT     0.417000        1.0079           0
    8995 WTD1 4179 TIP3 OH2  OT    -0.834000       15.9994           0
    8996 WTD1 4179 TIP3 H1   HT     0.417000        1.0079           0
    8997 WTD1 4179 TIP3 H2   HT     0.417000        1.0079           0
    8998 WTD1 4181 TIP3 OH2  OT    -0.834000       15.9994           0
    8999 WTD1 4181 TIP3 H1   HT     0.417000        1.0079           0
    9000 WTD1 4181 TIP3 H2   HT     0.417000        1.0079           0
    9001 WTD1 4184 TIP3 OH2  OT    -0.834000       15.9994           0
    9002 WTD1 4184 TIP3 H1   HT     0.417000        1.0079           0
    9003 WTD1 4184 TIP3 H2   HT     0.417000        1.0079           0
    9004 WTD1 4198 TIP3 OH2  OT    -0.834000       15.9994           0
    9005 WTD1 4198 TIP3 H1   HT     0.417000        1.0079           0
    9006 WTD1 4198 TIP3 H2   HT     0.417000        1.0079           0
    9007 WTD1 4200 TIP3 OH2  OT    -0.834000       15.9994           0
    9008 WTD1 4200 TIP3 H1   HT     0.417000        1.0079           0
    9009 WTD1 4200 TIP3 H2   HT     0.417000        1.0079           0
    9010 WTD1 4201 TIP3 OH2  OT    -0.834000       15.9994           0
    9011 WTD1 4201 TIP3 H1   HT     0.417000        1.0079           0
    9012 WTD1 4201 TIP3 H2   HT     0.417000        1.0079           0
    9013 WTD1 4202 TIP3 OH2  OT    -0.834000       15.9994           0
    9014 WTD1 4202 TIP3 H1   HT     0.417000        1.0079           0
    9015 WTD1 4202 TIP3 H2   HT     0.417000        1.0079           0
    9016 WTD1 4218 TIP3 OH2  OT    -0.834000       15.9994           0
    9017 WTD1 4218 TIP3 H1   HT     0.417000        1.0079           0
    9018 WTD1 4218 TIP3 H2   HT     0.417000        1.0079           0
    9019 WTD1 4219 TIP3 OH2  OT    -0.834000       15.9994           0
    9020 WTD1 4219 TIP3 H1   HT     0.417000        1.0079           0
    9021 WTD1 4219 TIP3 H2   HT     0.417000        1.0079           0
    9022 WTD1 4224 TIP3 OH2  OT    -0.834000       15.9994           0
    9023 WTD1 4224 TIP3 H1   HT     0.417000        1.0079           0
    9024 WTD1 4224 TIP3 H2   HT     0.417000        1.0079           0
    9025 WTD1 4226 TIP3 OH2  OT    -0.834000       15.9994           0
    9026 WTD1 4226 TIP3 H1   HT     0.417000        1.0079           0
    9027 WTD1 4226 TIP3 H2   HT     0.417000        1.0079           0
    9028 WTD1 4227 TIP3 OH2  OT    -0.834000       15.9994           0
    9029 WTD1 4227 TIP3 H1   HT     0.417000        1.0079           0
    9030 WTD1 4227 TIP3 H2   HT     0.417000        1.0079           0
    9031 WTD1 4246 TIP3 OH2  OT    -0.834000       15.9994           0
    9032 WTD1 4246 TIP3 H1   HT     0.417000        1.0079           0
    9033 WTD1 4246 TIP3 H2   HT     0.417000        1.0079           0
    9034 WTD1 4247 TIP3 OH2  OT    -0.834000       15.9994           0
    9035 WTD1 4247 TIP3 H1   HT     0.417000        1.0079           0
    9036 WTD1 4247 TIP3 H2   HT     0.417000        1.0079           0
    9037 WTD1 4248 TIP3 OH2  OT    -0.834000       15.9994           0
    9038 WTD1 4248 TIP3 H1   HT     0.417000        1.0079           0
    9039 WTD1 4248 TIP3 H2   HT     0.417000        1.0079           0
    9040 WTD1 4262 TIP3 OH2  OT    -0.834000       15.9994           0
    9041 WTD1 4262 TIP3 H1   HT     0.417000        1.0079           0
    9042 WTD1 4262 TIP3 H2   HT     0.417000        1.0079           0
    9043 WTD1 4264 TIP3 OH2  OT    -0.834000       15.9994           0
    9044 WTD1 4264 TIP3 H1   HT     0.417000        1.0079           0
    9045 WTD1 4264 TIP3 H2   HT     0.417000        1.0079           0
    9046 WTD1 4266 TIP3 OH2  OT    -0.834000       15.9994           0
    9047 WTD1 4266 TIP3 H1   HT     0.417000        1.0079           0
    9048 WTD1 4266 TIP3 H2   HT     0.417000        1.0079           0
    9049 WTD1 4267 TIP3 OH2  OT    -0.834000       15.9994           0
    9050 WTD1 4267 TIP3 H1   HT     0.417000        1.0079           0
    9051 WTD1 4267 TIP3 H2   HT     0.417000        1.0079           0
    9052 WTD1 4268 TIP3 OH2  OT    -0.834000       15.9994           0
    9053 WTD1 4268 TIP3 H1   HT     0.417000        1.0079           0
    9054 WTD1 4268 TIP3 H2   HT     0.417000        1.0079           0
    9055 WTD1 4269 TIP3 OH2  OT    -0.834000       15.9994           0
    9056 WTD1 4269 TIP3 H1   HT     0.417000        1.0079           0
    9057 WTD1 4269 TIP3 H2   HT     0.417000        1.0079           0
    9058 WTD1 4282 TIP3 OH2  OT    -0.834000       15.9994           0
    9059 WTD1 4282 TIP3 H1   HT     0.417000        1.0079           0
    9060 WTD1 4282 TIP3 H2   HT     0.417000        1.0079           0
    9061 WTD1 4283 TIP3 OH2  OT    -0.834000       15.9994           0
    9062 WTD1 4283 TIP3 H1   HT     0.417000        1.0079           0
    9063 WTD1 4283 TIP3 H2   HT     0.417000        1.0079           0
    9064 WTD1 4287 TIP3 OH2  OT    -0.834000       15.9994           0
    9065 WTD1 4287 TIP3 H1   HT     0.417000        1.0079           0
    9066 WTD1 4287 TIP3 H2   HT     0.417000        1.0079           0
    9067 WTD1 4289 TIP3 OH2  OT    -0.834000       15.9994           0
    9068 WTD1 4289 TIP3 H1   HT     0.417000        1.0079           0
    9069 WTD1 4289 TIP3 H2   HT     0.417000        1.0079           0
    9070 WTD1 4290 TIP3 OH2  OT    -0.834000       15.9994           0
    9071 WTD1 4290 TIP3 H1   HT     0.417000        1.0079           0
    9072 WTD1 4290 TIP3 H2   HT     0.417000        1.0079           0
    9073 WTD1 4304 TIP3 OH2  OT    -0.834000       15.9994           0
    9074 WTD1 4304 TIP3 H1   HT     0.417000        1.0079           0
    9075 WTD1 4304 TIP3 H2   HT     0.417000        1.0079           0
    9076 WTD1 4306 TIP3 OH2  OT    -0.834000       15.9994           0
    9077 WTD1 4306 TIP3 H1   HT     0.417000        1.0079           0
    9078 WTD1 4306 TIP3 H2   HT     0.417000        1.0079           0
    9079 WTD1 4307 TIP3 OH2  OT    -0.834000       15.9994           0
    9080 WTD1 4307 TIP3 H1   HT     0.417000        1.0079           0
    9081 WTD1 4307 TIP3 H2   HT     0.417000        1.0079           0
    9082 WTD1 4308 TIP3 OH2  OT    -0.834000       15.9994           0
    9083 WTD1 4308 TIP3 H1   HT     0.417000        1.0079           0
    9084 WTD1 4308 TIP3 H2   HT     0.417000        1.0079           0
    9085 WTD1 4309 TIP3 OH2  OT    -0.834000       15.9994           0
    9086 WTD1 4309 TIP3 H1   HT     0.417000        1.0079           0
    9087 WTD1 4309 TIP3 H2   HT     0.417000        1.0079           0
    9088 WTD1 4321 TIP3 OH2  OT    -0.834000       15.9994           0
    9089 WTD1 4321 TIP3 H1   HT     0.417000        1.0079           0
    9090 WTD1 4321 TIP3 H2   HT     0.417000        1.0079           0
    9091 WTD1 4328 TIP3 OH2  OT    -0.834000       15.9994           0
    9092 WTD1 4328 TIP3 H1   HT     0.417000        1.0079           0
    9093 WTD1 4328 TIP3 H2   HT     0.417000        1.0079           0
    9094 WTD1 4330 TIP3 OH2  OT    -0.834000       15.9994           0
    9095 WTD1 4330 TIP3 H1   HT     0.417000        1.0079           0
    9096 WTD1 4330 TIP3 H2   HT     0.417000        1.0079           0
    9097 WTD1 4350 TIP3 OH2  OT    -0.834000       15.9994           0
    9098 WTD1 4350 TIP3 H1   HT     0.417000        1.0079           0
    9099 WTD1 4350 TIP3 H2   HT     0.417000        1.0079           0
    9100 WTD1 4352 TIP3 OH2  OT    -0.834000       15.9994           0
    9101 WTD1 4352 TIP3 H1   HT     0.417000        1.0079           0
    9102 WTD1 4352 TIP3 H2   HT     0.417000        1.0079           0
    9103 WTD1 4353 TIP3 OH2  OT    -0.834000       15.9994           0
    9104 WTD1 4353 TIP3 H1   HT     0.417000        1.0079           0
    9105 WTD1 4353 TIP3 H2   HT     0.417000        1.0079           0
    9106 WTD1 4363 TIP3 OH2  OT    -0.834000       15.9994           0
    9107 WTD1 4363 TIP3 H1   HT     0.417000        1.0079           0
    9108 WTD1 4363 TIP3 H2   HT     0.417000        1.0079           0
    9109 WTD1 4372 TIP3 OH2  OT    -0.834000       15.9994           0
    9110 WTD1 4372 TIP3 H1   HT     0.417000        1.0079           0
    9111 WTD1 4372 TIP3 H2   HT     0.417000        1.0079           0
    9112 WTD1 4373 TIP3 OH2  OT    -0.834000       15.9994           0
    9113 WTD1 4373 TIP3 H1   HT     0.417000        1.0079           0
    9114 WTD1 4373 TIP3 H2   HT     0.417000        1.0079           0
    9115 WTD1 4374 TIP3 OH2  OT    -0.834000       15.9994           0
    9116 WTD1 4374 TIP3 H1   HT     0.417000        1.0079           0
    9117 WTD1 4374 TIP3 H2   HT     0.417000        1.0079           0
    9118 WTD1 4387 TIP3 OH2  OT    -0.834000       15.9994           0
    9119 WTD1 4387 TIP3 H1   HT     0.417000        1.0079           0
    9120 WTD1 4387 TIP3 H2   HT     0.417000        1.0079           0
    9121 WTD1 4391 TIP3 OH2  OT    -0.834000       15.9994           0
    9122 WTD1 4391 TIP3 H1   HT     0.417000        1.0079           0
    9123 WTD1 4391 TIP3 H2   HT     0.417000        1.0079           0
    9124 WTD1 4392 TIP3 OH2  OT    -0.834000       15.9994           0
    9125 WTD1 4392 TIP3 H1   HT     0.417000        1.0079           0
    9126 WTD1 4392 TIP3 H2   HT     0.417000        1.0079           0
    9127 WTD1 4394 TIP3 OH2  OT    -0.834000       15.9994           0
    9128 WTD1 4394 TIP3 H1   HT     0.417000        1.0079           0
    9129 WTD1 4394 TIP3 H2   HT     0.417000        1.0079           0
    9130 WTD1 4411 TIP3 OH2  OT    -0.834000       15.9994           0
    9131 WTD1 4411 TIP3 H1   HT     0.417000        1.0079           0
    9132 WTD1 4411 TIP3 H2   HT     0.417000        1.0079           0
    9133 WTD1 4414 TIP3 OH2  OT    -0.834000       15.9994           0
    9134 WTD1 4414 TIP3 H1   HT     0.417000        1.0079           0
    9135 WTD1 4414 TIP3 H2   HT     0.417000        1.0079           0
    9136 WTD1 4432 TIP3 OH2  OT    -0.834000       15.9994           0
    9137 WTD1 4432 TIP3 H1   HT     0.417000        1.0079           0
    9138 WTD1 4432 TIP3 H2   HT     0.417000        1.0079           0
    9139 WTD1 4434 TIP3 OH2  OT    -0.834000       15.9994           0
    9140 WTD1 4434 TIP3 H1   HT     0.417000        1.0079           0
    9141 WTD1 4434 TIP3 H2   HT     0.417000        1.0079           0
    9142 WTD1 4437 TIP3 OH2  OT    -0.834000       15.9994           0
    9143 WTD1 4437 TIP3 H1   HT     0.417000        1.0079           0
    9144 WTD1 4437 TIP3 H2   HT     0.417000        1.0079           0
    9145 WTD1 4452 TIP3 OH2  OT    -0.834000       15.9994           0
    9146 WTD1 4452 TIP3 H1   HT     0.417000        1.0079           0
    9147 WTD1 4452 TIP3 H2   HT     0.417000        1.0079           0
    9148 WTD1 4453 TIP3 OH2  OT    -0.834000       15.9994           0
    9149 WTD1 4453 TIP3 H1   HT     0.417000        1.0079           0
    9150 WTD1 4453 TIP3 H2   HT     0.417000        1.0079           0
    9151 WTD1 4454 TIP3 OH2  OT    -0.834000       15.9994           0
    9152 WTD1 4454 TIP3 H1   HT     0.417000        1.0079           0
    9153 WTD1 4454 TIP3 H2   HT     0.417000        1.0079           0
    9154 WTD1 4455 TIP3 OH2  OT    -0.834000       15.9994           0
    9155 WTD1 4455 TIP3 H1   HT     0.417000        1.0079           0
    9156 WTD1 4455 TIP3 H2   HT     0.417000        1.0079           0
    9157 WTD1 4457 TIP3 OH2  OT    -0.834000       15.9994           0
    9158 WTD1 4457 TIP3 H1   HT     0.417000        1.0079           0
    9159 WTD1 4457 TIP3 H2   HT     0.417000        1.0079           0
    9160 WTD1 4473 TIP3 OH2  OT    -0.834000       15.9994           0
    9161 WTD1 4473 TIP3 H1   HT     0.417000        1.0079           0
    9162 WTD1 4473 TIP3 H2   HT     0.417000        1.0079           0
    9163 WTD1 4474 TIP3 OH2  OT    -0.834000       15.9994           0
    9164 WTD1 4474 TIP3 H1   HT     0.417000        1.0079           0
    9165 WTD1 4474 TIP3 H2   HT     0.417000        1.0079           0
    9166 WTD1 4477 TIP3 OH2  OT    -0.834000       15.9994           0
    9167 WTD1 4477 TIP3 H1   HT     0.417000        1.0079           0
    9168 WTD1 4477 TIP3 H2   HT     0.417000        1.0079           0
    9169 WTD1 4478 TIP3 OH2  OT    -0.834000       15.9994           0
    9170 WTD1 4478 TIP3 H1   HT     0.417000        1.0079           0
    9171 WTD1 4478 TIP3 H2   HT     0.417000        1.0079           0
    9172 WTD1 4479 TIP3 OH2  OT    -0.834000       15.9994           0
    9173 WTD1 4479 TIP3 H1   HT     0.417000        1.0079           0
    9174 WTD1 4479 TIP3 H2   HT     0.417000        1.0079           0
    9175 WTD1 4481 TIP3 OH2  OT    -0.834000       15.9994           0
    9176 WTD1 4481 TIP3 H1   HT     0.417000        1.0079           0
    9177 WTD1 4481 TIP3 H2   HT     0.417000        1.0079           0
    9178 WTD1 4492 TIP3 OH2  OT    -0.834000       15.9994           0
    9179 WTD1 4492 TIP3 H1   HT     0.417000        1.0079           0
    9180 WTD1 4492 TIP3 H2   HT     0.417000        1.0079           0
    9181 WTD1 4496 TIP3 OH2  OT    -0.834000       15.9994           0
    9182 WTD1 4496 TIP3 H1   HT     0.417000        1.0079           0
    9183 WTD1 4496 TIP3 H2   HT     0.417000        1.0079           0
    9184 WTD1 4497 TIP3 OH2  OT    -0.834000       15.9994           0
    9185 WTD1 4497 TIP3 H1   HT     0.417000        1.0079           0
    9186 WTD1 4497 TIP3 H2   HT     0.417000        1.0079           0
    9187 WTD1 4500 TIP3 OH2  OT    -0.834000       15.9994           0
    9188 WTD1 4500 TIP3 H1   HT     0.417000        1.0079           0
    9189 WTD1 4500 TIP3 H2   HT     0.417000        1.0079           0
    9190 WTD1 4513 TIP3 OH2  OT    -0.834000       15.9994           0
    9191 WTD1 4513 TIP3 H1   HT     0.417000        1.0079           0
    9192 WTD1 4513 TIP3 H2   HT     0.417000        1.0079           0
    9193 WTD1 4516 TIP3 OH2  OT    -0.834000       15.9994           0
    9194 WTD1 4516 TIP3 H1   HT     0.417000        1.0079           0
    9195 WTD1 4516 TIP3 H2   HT     0.417000        1.0079           0
    9196 WTD1 4517 TIP3 OH2  OT    -0.834000       15.9994           0
    9197 WTD1 4517 TIP3 H1   HT     0.417000        1.0079           0
    9198 WTD1 4517 TIP3 H2   HT     0.417000        1.0079           0
    9199 WTD1 4518 TIP3 OH2  OT    -0.834000       15.9994           0
    9200 WTD1 4518 TIP3 H1   HT     0.417000        1.0079           0
    9201 WTD1 4518 TIP3 H2   HT     0.417000        1.0079           0
    9202 WTD1 4519 TIP3 OH2  OT    -0.834000       15.9994           0
    9203 WTD1 4519 TIP3 H1   HT     0.417000        1.0079           0
    9204 WTD1 4519 TIP3 H2   HT     0.417000        1.0079           0
    9205 WTD1 4536 TIP3 OH2  OT    -0.834000       15.9994           0
    9206 WTD1 4536 TIP3 H1   HT     0.417000        1.0079           0
    9207 WTD1 4536 TIP3 H2   HT     0.417000        1.0079           0
    9208 WTD1 4537 TIP3 OH2  OT    -0.834000       15.9994           0
    9209 WTD1 4537 TIP3 H1   HT     0.417000        1.0079           0
    9210 WTD1 4537 TIP3 H2   HT     0.417000        1.0079           0
    9211 WTD1 4538 TIP3 OH2  OT    -0.834000       15.9994           0
    9212 WTD1 4538 TIP3 H1   HT     0.417000        1.0079           0
    9213 WTD1 4538 TIP3 H2   HT     0.417000        1.0079           0
    9214 WTD1 4540 TIP3 OH2  OT    -0.834000       15.9994           0
    9215 WTD1 4540 TIP3 H1   HT     0.417000        1.0079           0
    9216 WTD1 4540 TIP3 H2   HT     0.417000        1.0079           0
    9217 WTD1 4542 TIP3 OH2  OT    -0.834000       15.9994           0
    9218 WTD1 4542 TIP3 H1   HT     0.417000        1.0079           0
    9219 WTD1 4542 TIP3 H2   HT     0.417000        1.0079           0
    9220 WTD1 4553 TIP3 OH2  OT    -0.834000       15.9994           0
    9221 WTD1 4553 TIP3 H1   HT     0.417000        1.0079           0
    9222 WTD1 4553 TIP3 H2   HT     0.417000        1.0079           0
    9223 WTD1 4558 TIP3 OH2  OT    -0.834000       15.9994           0
    9224 WTD1 4558 TIP3 H1   HT     0.417000        1.0079           0
    9225 WTD1 4558 TIP3 H2   HT     0.417000        1.0079           0
    9226 WTD1 4559 TIP3 OH2  OT    -0.834000       15.9994           0
    9227 WTD1 4559 TIP3 H1   HT     0.417000        1.0079           0
    9228 WTD1 4559 TIP3 H2   HT     0.417000        1.0079           0
    9229 WTD1 4561 TIP3 OH2  OT    -0.834000       15.9994           0
    9230 WTD1 4561 TIP3 H1   HT     0.417000        1.0079           0
    9231 WTD1 4561 TIP3 H2   HT     0.417000        1.0079           0
    9232 WTD1 4563 TIP3 OH2  OT    -0.834000       15.9994           0
    9233 WTD1 4563 TIP3 H1   HT     0.417000        1.0079           0
    9234 WTD1 4563 TIP3 H2   HT     0.417000        1.0079           0
    9235 WTD1 4569 TIP3 OH2  OT    -0.834000       15.9994           0
    9236 WTD1 4569 TIP3 H1   HT     0.417000        1.0079           0
    9237 WTD1 4569 TIP3 H2   HT     0.417000        1.0079           0
    9238 WTD1 4578 TIP3 OH2  OT    -0.834000       15.9994           0
    9239 WTD1 4578 TIP3 H1   HT     0.417000        1.0079           0
    9240 WTD1 4578 TIP3 H2   HT     0.417000        1.0079           0
    9241 WTD1 4581 TIP3 OH2  OT    -0.834000       15.9994           0
    9242 WTD1 4581 TIP3 H1   HT     0.417000        1.0079           0
    9243 WTD1 4581 TIP3 H2   HT     0.417000        1.0079           0
    9244 WTD1 4582 TIP3 OH2  OT    -0.834000       15.9994           0
    9245 WTD1 4582 TIP3 H1   HT     0.417000        1.0079           0
    9246 WTD1 4582 TIP3 H2   HT     0.417000        1.0079           0
    9247 WTD1 4586 TIP3 OH2  OT    -0.834000       15.9994           0
    9248 WTD1 4586 TIP3 H1   HT     0.417000        1.0079           0
    9249 WTD1 4586 TIP3 H2   HT     0.417000        1.0079           0
    9250 WTD1 4599 TIP3 OH2  OT    -0.834000       15.9994           0
    9251 WTD1 4599 TIP3 H1   HT     0.417000        1.0079           0
    9252 WTD1 4599 TIP3 H2   HT     0.417000        1.0079           0
    9253 WTD1 4600 TIP3 OH2  OT    -0.834000       15.9994           0
    9254 WTD1 4600 TIP3 H1   HT     0.417000        1.0079           0
    9255 WTD1 4600 TIP3 H2   HT     0.417000        1.0079           0
    9256 WTD1 4602 TIP3 OH2  OT    -0.834000       15.9994           0
    9257 WTD1 4602 TIP3 H1   HT     0.417000        1.0079           0
    9258 WTD1 4602 TIP3 H2   HT     0.417000        1.0079           0
    9259 WTD1 4621 TIP3 OH2  OT    -0.834000       15.9994           0
    9260 WTD1 4621 TIP3 H1   HT     0.417000        1.0079           0
    9261 WTD1 4621 TIP3 H2   HT     0.417000        1.0079           0
    9262 WTD1 4622 TIP3 OH2  OT    -0.834000       15.9994           0
    9263 WTD1 4622 TIP3 H1   HT     0.417000        1.0079           0
    9264 WTD1 4622 TIP3 H2   HT     0.417000        1.0079           0
    9265 WTD1 4628 TIP3 OH2  OT    -0.834000       15.9994           0
    9266 WTD1 4628 TIP3 H1   HT     0.417000        1.0079           0
    9267 WTD1 4628 TIP3 H2   HT     0.417000        1.0079           0
    9268 WTD1 4629 TIP3 OH2  OT    -0.834000       15.9994           0
    9269 WTD1 4629 TIP3 H1   HT     0.417000        1.0079           0
    9270 WTD1 4629 TIP3 H2   HT     0.417000        1.0079           0
    9271 WTD1 4641 TIP3 OH2  OT    -0.834000       15.9994           0
    9272 WTD1 4641 TIP3 H1   HT     0.417000        1.0079           0
    9273 WTD1 4641 TIP3 H2   HT     0.417000        1.0079           0
    9274 WTD1 4643 TIP3 OH2  OT    -0.834000       15.9994           0
    9275 WTD1 4643 TIP3 H1   HT     0.417000        1.0079           0
    9276 WTD1 4643 TIP3 H2   HT     0.417000        1.0079           0
    9277 WTD1 4644 TIP3 OH2  OT    -0.834000       15.9994           0
    9278 WTD1 4644 TIP3 H1   HT     0.417000        1.0079           0
    9279 WTD1 4644 TIP3 H2   HT     0.417000        1.0079           0
    9280 WTD1 4645 TIP3 OH2  OT    -0.834000       15.9994           0
    9281 WTD1 4645 TIP3 H1   HT     0.417000        1.0079           0
    9282 WTD1 4645 TIP3 H2   HT     0.417000        1.0079           0
    9283 WTD1 4648 TIP3 OH2  OT    -0.834000       15.9994           0
    9284 WTD1 4648 TIP3 H1   HT     0.417000        1.0079           0
    9285 WTD1 4648 TIP3 H2   HT     0.417000        1.0079           0
    9286 WTD1 4661 TIP3 OH2  OT    -0.834000       15.9994           0
    9287 WTD1 4661 TIP3 H1   HT     0.417000        1.0079           0
    9288 WTD1 4661 TIP3 H2   HT     0.417000        1.0079           0
    9289 WTD1 4664 TIP3 OH2  OT    -0.834000       15.9994           0
    9290 WTD1 4664 TIP3 H1   HT     0.417000        1.0079           0
    9291 WTD1 4664 TIP3 H2   HT     0.417000        1.0079           0
    9292 WTD1 4665 TIP3 OH2  OT    -0.834000       15.9994           0
    9293 WTD1 4665 TIP3 H1   HT     0.417000        1.0079           0
    9294 WTD1 4665 TIP3 H2   HT     0.417000        1.0079           0
    9295 WTD1 4704 TIP3 OH2  OT    -0.834000       15.9994           0
    9296 WTD1 4704 TIP3 H1   HT     0.417000        1.0079           0
    9297 WTD1 4704 TIP3 H2   HT     0.417000        1.0079           0
    9298 WTD1 4705 TIP3 OH2  OT    -0.834000       15.9994           0
    9299 WTD1 4705 TIP3 H1   HT     0.417000        1.0079           0
    9300 WTD1 4705 TIP3 H2   HT     0.417000        1.0079           0
    9301 WTD1 4710 TIP3 OH2  OT    -0.834000       15.9994           0
    9302 WTD1 4710 TIP3 H1   HT     0.417000        1.0079           0
    9303 WTD1 4710 TIP3 H2   HT     0.417000        1.0079           0
    9304 WTD1 4725 TIP3 OH2  OT    -0.834000       15.9994           0
    9305 WTD1 4725 TIP3 H1   HT     0.417000        1.0079           0
    9306 WTD1 4725 TIP3 H2   HT     0.417000        1.0079           0
    9307 WTD1 4727 TIP3 OH2  OT    -0.834000       15.9994           0
    9308 WTD1 4727 TIP3 H1   HT     0.417000        1.0079           0
    9309 WTD1 4727 TIP3 H2   HT     0.417000        1.0079           0
    9310 WTD1 4729 TIP3 OH2  OT    -0.834000       15.9994           0
    9311 WTD1 4729 TIP3 H1   HT     0.417000        1.0079           0
    9312 WTD1 4729 TIP3 H2   HT     0.417000        1.0079           0
    9313 WTD1 4732 TIP3 OH2  OT    -0.834000       15.9994           0
    9314 WTD1 4732 TIP3 H1   HT     0.417000        1.0079           0
    9315 WTD1 4732 TIP3 H2   HT     0.417000        1.0079           0
    9316 WTD1 4748 TIP3 OH2  OT    -0.834000       15.9994           0
    9317 WTD1 4748 TIP3 H1   HT     0.417000        1.0079           0
    9318 WTD1 4748 TIP3 H2   HT     0.417000        1.0079           0
    9319 WTD1 4750 TIP3 OH2  OT    -0.834000       15.9994           0
    9320 WTD1 4750 TIP3 H1   HT     0.417000        1.0079           0
    9321 WTD1 4750 TIP3 H2   HT     0.417000        1.0079           0
    9322 WTD1 4751 TIP3 OH2  OT    -0.834000       15.9994           0
    9323 WTD1 4751 TIP3 H1   HT     0.417000        1.0079           0
    9324 WTD1 4751 TIP3 H2   HT     0.417000        1.0079           0
    9325 WTD1 4767 TIP3 OH2  OT    -0.834000       15.9994           0
    9326 WTD1 4767 TIP3 H1   HT     0.417000        1.0079           0
    9327 WTD1 4767 TIP3 H2   HT     0.417000        1.0079           0
    9328 WTD1 4768 TIP3 OH2  OT    -0.834000       15.9994           0
    9329 WTD1 4768 TIP3 H1   HT     0.417000        1.0079           0
    9330 WTD1 4768 TIP3 H2   HT     0.417000        1.0079           0
    9331 WTD1 4787 TIP3 OH2  OT    -0.834000       15.9994           0
    9332 WTD1 4787 TIP3 H1   HT     0.417000        1.0079           0
    9333 WTD1 4787 TIP3 H2   HT     0.417000        1.0079           0
    9334 WTD1 4788 TIP3 OH2  OT    -0.834000       15.9994           0
    9335 WTD1 4788 TIP3 H1   HT     0.417000        1.0079           0
    9336 WTD1 4788 TIP3 H2   HT     0.417000        1.0079           0
    9337 WTD1 4790 TIP3 OH2  OT    -0.834000       15.9994           0
    9338 WTD1 4790 TIP3 H1   HT     0.417000        1.0079           0
    9339 WTD1 4790 TIP3 H2   HT     0.417000        1.0079           0
    9340 WTD1 4791 TIP3 OH2  OT    -0.834000       15.9994           0
    9341 WTD1 4791 TIP3 H1   HT     0.417000        1.0079           0
    9342 WTD1 4791 TIP3 H2   HT     0.417000        1.0079           0
    9343 WTD1 4806 TIP3 OH2  OT    -0.834000       15.9994           0
    9344 WTD1 4806 TIP3 H1   HT     0.417000        1.0079           0
    9345 WTD1 4806 TIP3 H2   HT     0.417000        1.0079           0
    9346 WTD1 4808 TIP3 OH2  OT    -0.834000       15.9994           0
    9347 WTD1 4808 TIP3 H1   HT     0.417000        1.0079           0
    9348 WTD1 4808 TIP3 H2   HT     0.417000        1.0079           0
    9349 WTD1 4809 TIP3 OH2  OT    -0.834000       15.9994           0
    9350 WTD1 4809 TIP3 H1   HT     0.417000        1.0079           0
    9351 WTD1 4809 TIP3 H2   HT     0.417000        1.0079           0
    9352 WTD1 4812 TIP3 OH2  OT    -0.834000       15.9994           0
    9353 WTD1 4812 TIP3 H1   HT     0.417000        1.0079           0
    9354 WTD1 4812 TIP3 H2   HT     0.417000        1.0079           0
    9355 WTD1 4813 TIP3 OH2  OT    -0.834000       15.9994           0
    9356 WTD1 4813 TIP3 H1   HT     0.417000        1.0079           0
    9357 WTD1 4813 TIP3 H2   HT     0.417000        1.0079           0
    9358 WTD1 4832 TIP3 OH2  OT    -0.834000       15.9994           0
    9359 WTD1 4832 TIP3 H1   HT     0.417000        1.0079           0
    9360 WTD1 4832 TIP3 H2   HT     0.417000        1.0079           0
    9361 WTD1 4833 TIP3 OH2  OT    -0.834000       15.9994           0
    9362 WTD1 4833 TIP3 H1   HT     0.417000        1.0079           0
    9363 WTD1 4833 TIP3 H2   HT     0.417000        1.0079           0
    9364 WTD1 4834 TIP3 OH2  OT    -0.834000       15.9994           0
    9365 WTD1 4834 TIP3 H1   HT     0.417000        1.0079           0
    9366 WTD1 4834 TIP3 H2   HT     0.417000        1.0079           0
    9367 WTD1 4835 TIP3 OH2  OT    -0.834000       15.9994           0
    9368 WTD1 4835 TIP3 H1   HT     0.417000        1.0079           0
    9369 WTD1 4835 TIP3 H2   HT     0.417000        1.0079           0
    9370 WTD1 4836 TIP3 OH2  OT    -0.834000       15.9994           0
    9371 WTD1 4836 TIP3 H1   HT     0.417000        1.0079           0
    9372 WTD1 4836 TIP3 H2   HT     0.417000        1.0079           0
    9373 WTD1 4839 TIP3 OH2  OT    -0.834000       15.9994           0
    9374 WTD1 4839 TIP3 H1   HT     0.417000        1.0079           0
    9375 WTD1 4839 TIP3 H2   HT     0.417000        1.0079           0
    9376 WTD1 4849 TIP3 OH2  OT    -0.834000       15.9994           0
    9377 WTD1 4849 TIP3 H1   HT     0.417000        1.0079           0
    9378 WTD1 4849 TIP3 H2   HT     0.417000        1.0079           0
    9379 WTD1 4851 TIP3 OH2  OT    -0.834000       15.9994           0
    9380 WTD1 4851 TIP3 H1   HT     0.417000        1.0079           0
    9381 WTD1 4851 TIP3 H2   HT     0.417000        1.0079           0
    9382 WTD1 4852 TIP3 OH2  OT    -0.834000       15.9994           0
    9383 WTD1 4852 TIP3 H1   HT     0.417000        1.0079           0
    9384 WTD1 4852 TIP3 H2   HT     0.417000        1.0079           0
    9385 WTD1 4853 TIP3 OH2  OT    -0.834000       15.9994           0
    9386 WTD1 4853 TIP3 H1   HT     0.417000        1.0079           0
    9387 WTD1 4853 TIP3 H2   HT     0.417000        1.0079           0
    9388 WTD1 4872 TIP3 OH2  OT    -0.834000       15.9994           0
    9389 WTD1 4872 TIP3 H1   HT     0.417000        1.0079           0
    9390 WTD1 4872 TIP3 H2   HT     0.417000        1.0079           0
    9391 WTD1 4875 TIP3 OH2  OT    -0.834000       15.9994           0
    9392 WTD1 4875 TIP3 H1   HT     0.417000        1.0079           0
    9393 WTD1 4875 TIP3 H2   HT     0.417000        1.0079           0
    9394 WTD1 4876 TIP3 OH2  OT    -0.834000       15.9994           0
    9395 WTD1 4876 TIP3 H1   HT     0.417000        1.0079           0
    9396 WTD1 4876 TIP3 H2   HT     0.417000        1.0079           0
    9397 WTD1 4890 TIP3 OH2  OT    -0.834000       15.9994           0
    9398 WTD1 4890 TIP3 H1   HT     0.417000        1.0079           0
    9399 WTD1 4890 TIP3 H2   HT     0.417000        1.0079           0
    9400 WTD1 4893 TIP3 OH2  OT    -0.834000       15.9994           0
    9401 WTD1 4893 TIP3 H1   HT     0.417000        1.0079           0
    9402 WTD1 4893 TIP3 H2   HT     0.417000        1.0079           0
    9403 WTD1 4897 TIP3 OH2  OT    -0.834000       15.9994           0
    9404 WTD1 4897 TIP3 H1   HT     0.417000        1.0079           0
    9405 WTD1 4897 TIP3 H2   HT     0.417000        1.0079           0
    9406 WTD1 4898 TIP3 OH2  OT    -0.834000       15.9994           0
    9407 WTD1 4898 TIP3 H1   HT     0.417000        1.0079           0
    9408 WTD1 4898 TIP3 H2   HT     0.417000        1.0079           0
    9409 WTD1 4904 TIP3 OH2  OT    -0.834000       15.9994           0
    9410 WTD1 4904 TIP3 H1   HT     0.417000        1.0079           0
    9411 WTD1 4904 TIP3 H2   HT     0.417000        1.0079           0
    9412 WTD1 4914 TIP3 OH2  OT    -0.834000       15.9994           0
    9413 WTD1 4914 TIP3 H1   HT     0.417000        1.0079           0
    9414 WTD1 4914 TIP3 H2   HT     0.417000        1.0079           0
    9415 WTD1 4915 TIP3 OH2  OT    -0.834000       15.9994           0
    9416 WTD1 4915 TIP3 H1   HT     0.417000        1.0079           0
    9417 WTD1 4915 TIP3 H2   HT     0.417000        1.0079           0
    9418 WTD1 4916 TIP3 OH2  OT    -0.834000       15.9994           0
    9419 WTD1 4916 TIP3 H1   HT     0.417000        1.0079           0
    9420 WTD1 4916 TIP3 H2   HT     0.417000        1.0079           0
    9421 WTD1 4918 TIP3 OH2  OT    -0.834000       15.9994           0
    9422 WTD1 4918 TIP3 H1   HT     0.417000        1.0079           0
    9423 WTD1 4918 TIP3 H2   HT     0.417000        1.0079           0
    9424 WTD1 4922 TIP3 OH2  OT    -0.834000       15.9994           0
    9425 WTD1 4922 TIP3 H1   HT     0.417000        1.0079           0
    9426 WTD1 4922 TIP3 H2   HT     0.417000        1.0079           0
    9427 WTD1 4934 TIP3 OH2  OT    -0.834000       15.9994           0
    9428 WTD1 4934 TIP3 H1   HT     0.417000        1.0079           0
    9429 WTD1 4934 TIP3 H2   HT     0.417000        1.0079           0
    9430 WTD1 4936 TIP3 OH2  OT    -0.834000       15.9994           0
    9431 WTD1 4936 TIP3 H1   HT     0.417000        1.0079           0
    9432 WTD1 4936 TIP3 H2   HT     0.417000        1.0079           0
    9433 WTD1 4937 TIP3 OH2  OT    -0.834000       15.9994           0
    9434 WTD1 4937 TIP3 H1   HT     0.417000        1.0079           0
    9435 WTD1 4937 TIP3 H2   HT     0.417000        1.0079           0
    9436 WTD1 4939 TIP3 OH2  OT    -0.834000       15.9994           0
    9437 WTD1 4939 TIP3 H1   HT     0.417000        1.0079           0
    9438 WTD1 4939 TIP3 H2   HT     0.417000        1.0079           0
    9439 WTD1 4942 TIP3 OH2  OT    -0.834000       15.9994           0
    9440 WTD1 4942 TIP3 H1   HT     0.417000        1.0079           0
    9441 WTD1 4942 TIP3 H2   HT     0.417000        1.0079           0
    9442 WTD1 4956 TIP3 OH2  OT    -0.834000       15.9994           0
    9443 WTD1 4956 TIP3 H1   HT     0.417000        1.0079           0
    9444 WTD1 4956 TIP3 H2   HT     0.417000        1.0079           0
    9445 WTD1 4957 TIP3 OH2  OT    -0.834000       15.9994           0
    9446 WTD1 4957 TIP3 H1   HT     0.417000        1.0079           0
    9447 WTD1 4957 TIP3 H2   HT     0.417000        1.0079           0
    9448 WTD1 4962 TIP3 OH2  OT    -0.834000       15.9994           0
    9449 WTD1 4962 TIP3 H1   HT     0.417000        1.0079           0
    9450 WTD1 4962 TIP3 H2   HT     0.417000        1.0079           0
    9451 WTD1 4980 TIP3 OH2  OT    -0.834000       15.9994           0
    9452 WTD1 4980 TIP3 H1   HT     0.417000        1.0079           0
    9453 WTD1 4980 TIP3 H2   HT     0.417000        1.0079           0
    9454 WTD1 4982 TIP3 OH2  OT    -0.834000       15.9994           0
    9455 WTD1 4982 TIP3 H1   HT     0.417000        1.0079           0
    9456 WTD1 4982 TIP3 H2   HT     0.417000        1.0079           0
    9457 WTD1 4996 TIP3 OH2  OT    -0.834000       15.9994           0
    9458 WTD1 4996 TIP3 H1   HT     0.417000        1.0079           0
    9459 WTD1 4996 TIP3 H2   HT     0.417000        1.0079           0
    9460 WTD1 4998 TIP3 OH2  OT    -0.834000       15.9994           0
    9461 WTD1 4998 TIP3 H1   HT     0.417000        1.0079           0
    9462 WTD1 4998 TIP3 H2   HT     0.417000        1.0079           0
    9463 WTD1 5002 TIP3 OH2  OT    -0.834000       15.9994           0
    9464 WTD1 5002 TIP3 H1   HT     0.417000        1.0079           0
    9465 WTD1 5002 TIP3 H2   HT     0.417000        1.0079           0
    9466 WTD1 5004 TIP3 OH2  OT    -0.834000       15.9994           0
    9467 WTD1 5004 TIP3 H1   HT     0.417000        1.0079           0
    9468 WTD1 5004 TIP3 H2   HT     0.417000        1.0079           0
    9469 WTD1 5005 TIP3 OH2  OT    -0.834000       15.9994           0
    9470 WTD1 5005 TIP3 H1   HT     0.417000        1.0079           0
    9471 WTD1 5005 TIP3 H2   HT     0.417000        1.0079           0
    9472 WTD1 5019 TIP3 OH2  OT    -0.834000       15.9994           0
    9473 WTD1 5019 TIP3 H1   HT     0.417000        1.0079           0
    9474 WTD1 5019 TIP3 H2   HT     0.417000        1.0079           0
    9475 WTD1 5021 TIP3 OH2  OT    -0.834000       15.9994           0
    9476 WTD1 5021 TIP3 H1   HT     0.417000        1.0079           0
    9477 WTD1 5021 TIP3 H2   HT     0.417000        1.0079           0
    9478 WTD1 5023 TIP3 OH2  OT    -0.834000       15.9994           0
    9479 WTD1 5023 TIP3 H1   HT     0.417000        1.0079           0
    9480 WTD1 5023 TIP3 H2   HT     0.417000        1.0079           0
    9481 WTD1 5040 TIP3 OH2  OT    -0.834000       15.9994           0
    9482 WTD1 5040 TIP3 H1   HT     0.417000        1.0079           0
    9483 WTD1 5040 TIP3 H2   HT     0.417000        1.0079           0
    9484 WTD1 5043 TIP3 OH2  OT    -0.834000       15.9994           0
    9485 WTD1 5043 TIP3 H1   HT     0.417000        1.0079           0
    9486 WTD1 5043 TIP3 H2   HT     0.417000        1.0079           0
    9487 WTD1 5044 TIP3 OH2  OT    -0.834000       15.9994           0
    9488 WTD1 5044 TIP3 H1   HT     0.417000        1.0079           0
    9489 WTD1 5044 TIP3 H2   HT     0.417000        1.0079           0
    9490 WTD1 5060 TIP3 OH2  OT    -0.834000       15.9994           0
    9491 WTD1 5060 TIP3 H1   HT     0.417000        1.0079           0
    9492 WTD1 5060 TIP3 H2   HT     0.417000        1.0079           0
    9493 WTD1 5061 TIP3 OH2  OT    -0.834000       15.9994           0
    9494 WTD1 5061 TIP3 H1   HT     0.417000        1.0079           0
    9495 WTD1 5061 TIP3 H2   HT     0.417000        1.0079           0
    9496 WTD1 5063 TIP3 OH2  OT    -0.834000       15.9994           0
    9497 WTD1 5063 TIP3 H1   HT     0.417000        1.0079           0
    9498 WTD1 5063 TIP3 H2   HT     0.417000        1.0079           0
    9499 WTD1 5064 TIP3 OH2  OT    -0.834000       15.9994           0
    9500 WTD1 5064 TIP3 H1   HT     0.417000        1.0079           0
    9501 WTD1 5064 TIP3 H2   HT     0.417000        1.0079           0
    9502 WTD1 5085 TIP3 OH2  OT    -0.834000       15.9994           0
    9503 WTD1 5085 TIP3 H1   HT     0.417000        1.0079           0
    9504 WTD1 5085 TIP3 H2   HT     0.417000        1.0079           0
    9505 WTD1 5091 TIP3 OH2  OT    -0.834000       15.9994           0
    9506 WTD1 5091 TIP3 H1   HT     0.417000        1.0079           0
    9507 WTD1 5091 TIP3 H2   HT     0.417000        1.0079           0
    9508 WTD1 5108 TIP3 OH2  OT    -0.834000       15.9994           0
    9509 WTD1 5108 TIP3 H1   HT     0.417000        1.0079           0
    9510 WTD1 5108 TIP3 H2   HT     0.417000        1.0079           0
    9511 WTD1 5109 TIP3 OH2  OT    -0.834000       15.9994           0
    9512 WTD1 5109 TIP3 H1   HT     0.417000        1.0079           0
    9513 WTD1 5109 TIP3 H2   HT     0.417000        1.0079           0
    9514 WTD1 5126 TIP3 OH2  OT    -0.834000       15.9994           0
    9515 WTD1 5126 TIP3 H1   HT     0.417000        1.0079           0
    9516 WTD1 5126 TIP3 H2   HT     0.417000        1.0079           0
    9517 WTD1 5127 TIP3 OH2  OT    -0.834000       15.9994           0
    9518 WTD1 5127 TIP3 H1   HT     0.417000        1.0079           0
    9519 WTD1 5127 TIP3 H2   HT     0.417000        1.0079           0
    9520 WTD1 5128 TIP3 OH2  OT    -0.834000       15.9994           0
    9521 WTD1 5128 TIP3 H1   HT     0.417000        1.0079           0
    9522 WTD1 5128 TIP3 H2   HT     0.417000        1.0079           0
    9523 WTD1 5130 TIP3 OH2  OT    -0.834000       15.9994           0
    9524 WTD1 5130 TIP3 H1   HT     0.417000        1.0079           0
    9525 WTD1 5130 TIP3 H2   HT     0.417000        1.0079           0
    9526 WTD1 5146 TIP3 OH2  OT    -0.834000       15.9994           0
    9527 WTD1 5146 TIP3 H1   HT     0.417000        1.0079           0
    9528 WTD1 5146 TIP3 H2   HT     0.417000        1.0079           0
    9529 WTD1 5147 TIP3 OH2  OT    -0.834000       15.9994           0
    9530 WTD1 5147 TIP3 H1   HT     0.417000        1.0079           0
    9531 WTD1 5147 TIP3 H2   HT     0.417000        1.0079           0
    9532 WTD1 5148 TIP3 OH2  OT    -0.834000       15.9994           0
    9533 WTD1 5148 TIP3 H1   HT     0.417000        1.0079           0
    9534 WTD1 5148 TIP3 H2   HT     0.417000        1.0079           0
    9535 WTD1 5149 TIP3 OH2  OT    -0.834000       15.9994           0
    9536 WTD1 5149 TIP3 H1   HT     0.417000        1.0079           0
    9537 WTD1 5149 TIP3 H2   HT     0.417000        1.0079           0
    9538 WTD1 5162 TIP3 OH2  OT    -0.834000       15.9994           0
    9539 WTD1 5162 TIP3 H1   HT     0.417000        1.0079           0
    9540 WTD1 5162 TIP3 H2   HT     0.417000        1.0079           0
    9541 WTD1 5165 TIP3 OH2  OT    -0.834000       15.9994           0
    9542 WTD1 5165 TIP3 H1   HT     0.417000        1.0079           0
    9543 WTD1 5165 TIP3 H2   HT     0.417000        1.0079           0
    9544 WTD1 5166 TIP3 OH2  OT    -0.834000       15.9994           0
    9545 WTD1 5166 TIP3 H1   HT     0.417000        1.0079           0
    9546 WTD1 5166 TIP3 H2   HT     0.417000        1.0079           0
    9547 WTD1 5168 TIP3 OH2  OT    -0.834000       15.9994           0
    9548 WTD1 5168 TIP3 H1   HT     0.417000        1.0079           0
    9549 WTD1 5168 TIP3 H2   HT     0.417000        1.0079           0
    9550 WTD1 5186 TIP3 OH2  OT    -0.834000       15.9994           0
    9551 WTD1 5186 TIP3 H1   HT     0.417000        1.0079           0
    9552 WTD1 5186 TIP3 H2   HT     0.417000        1.0079           0
    9553 WTD1 5188 TIP3 OH2  OT    -0.834000       15.9994           0
    9554 WTD1 5188 TIP3 H1   HT     0.417000        1.0079           0
    9555 WTD1 5188 TIP3 H2   HT     0.417000        1.0079           0
    9556 WTD1 5189 TIP3 OH2  OT    -0.834000       15.9994           0
    9557 WTD1 5189 TIP3 H1   HT     0.417000        1.0079           0
    9558 WTD1 5189 TIP3 H2   HT     0.417000        1.0079           0
    9559 WTD1 5190 TIP3 OH2  OT    -0.834000       15.9994           0
    9560 WTD1 5190 TIP3 H1   HT     0.417000        1.0079           0
    9561 WTD1 5190 TIP3 H2   HT     0.417000        1.0079           0
    9562 WTD1 5193 TIP3 OH2  OT    -0.834000       15.9994           0
    9563 WTD1 5193 TIP3 H1   HT     0.417000        1.0079           0
    9564 WTD1 5193 TIP3 H2   HT     0.417000        1.0079           0
    9565 WTD1 5206 TIP3 OH2  OT    -0.834000       15.9994           0
    9566 WTD1 5206 TIP3 H1   HT     0.417000        1.0079           0
    9567 WTD1 5206 TIP3 H2   HT     0.417000        1.0079           0
    9568 WTD1 5214 TIP3 OH2  OT    -0.834000       15.9994           0
    9569 WTD1 5214 TIP3 H1   HT     0.417000        1.0079           0
    9570 WTD1 5214 TIP3 H2   HT     0.417000        1.0079           0
    9571 WTD1 5230 TIP3 OH2  OT    -0.834000       15.9994           0
    9572 WTD1 5230 TIP3 H1   HT     0.417000        1.0079           0
    9573 WTD1 5230 TIP3 H2   HT     0.417000        1.0079           0
    9574 WTD1 5231 TIP3 OH2  OT    -0.834000       15.9994           0
    9575 WTD1 5231 TIP3 H1   HT     0.417000        1.0079           0
    9576 WTD1 5231 TIP3 H2   HT     0.417000        1.0079           0
    9577 WTD1 5251 TIP3 OH2  OT    -0.834000       15.9994           0
    9578 WTD1 5251 TIP3 H1   HT     0.417000        1.0079           0
    9579 WTD1 5251 TIP3 H2   HT     0.417000        1.0079           0
    9580 WTD1 5253 TIP3 OH2  OT    -0.834000       15.9994           0
    9581 WTD1 5253 TIP3 H1   HT     0.417000        1.0079           0
    9582 WTD1 5253 TIP3 H2   HT     0.417000        1.0079           0
    9583 WTD1 5255 TIP3 OH2  OT    -0.834000       15.9994           0
    9584 WTD1 5255 TIP3 H1   HT     0.417000        1.0079           0
    9585 WTD1 5255 TIP3 H2   HT     0.417000        1.0079           0
    9586 WTD1 5259 TIP3 OH2  OT    -0.834000       15.9994           0
    9587 WTD1 5259 TIP3 H1   HT     0.417000        1.0079           0
    9588 WTD1 5259 TIP3 H2   HT     0.417000        1.0079           0
    9589 WTD1 5270 TIP3 OH2  OT    -0.834000       15.9994           0
    9590 WTD1 5270 TIP3 H1   HT     0.417000        1.0079           0
    9591 WTD1 5270 TIP3 H2   HT     0.417000        1.0079           0
    9592 WTD1 5271 TIP3 OH2  OT    -0.834000       15.9994           0
    9593 WTD1 5271 TIP3 H1   HT     0.417000        1.0079           0
    9594 WTD1 5271 TIP3 H2   HT     0.417000        1.0079           0
    9595 WTD1 5272 TIP3 OH2  OT    -0.834000       15.9994           0
    9596 WTD1 5272 TIP3 H1   HT     0.417000        1.0079           0
    9597 WTD1 5272 TIP3 H2   HT     0.417000        1.0079           0
    9598 WTD1 5274 TIP3 OH2  OT    -0.834000       15.9994           0
    9599 WTD1 5274 TIP3 H1   HT     0.417000        1.0079           0
    9600 WTD1 5274 TIP3 H2   HT     0.417000        1.0079           0
    9601 WTD1 5275 TIP3 OH2  OT    -0.834000       15.9994           0
    9602 WTD1 5275 TIP3 H1   HT     0.417000        1.0079           0
    9603 WTD1 5275 TIP3 H2   HT     0.417000        1.0079           0
    9604 WTD1 5277 TIP3 OH2  OT    -0.834000       15.9994           0
    9605 WTD1 5277 TIP3 H1   HT     0.417000        1.0079           0
    9606 WTD1 5277 TIP3 H2   HT     0.417000        1.0079           0
    9607 WTD1 5278 TIP3 OH2  OT    -0.834000       15.9994           0
    9608 WTD1 5278 TIP3 H1   HT     0.417000        1.0079           0
    9609 WTD1 5278 TIP3 H2   HT     0.417000        1.0079           0
    9610 WTD1 5292 TIP3 OH2  OT    -0.834000       15.9994           0
    9611 WTD1 5292 TIP3 H1   HT     0.417000        1.0079           0
    9612 WTD1 5292 TIP3 H2   HT     0.417000        1.0079           0
    9613 WTD1 5293 TIP3 OH2  OT    -0.834000       15.9994           0
    9614 WTD1 5293 TIP3 H1   HT     0.417000        1.0079           0
    9615 WTD1 5293 TIP3 H2   HT     0.417000        1.0079           0
    9616 WTD1 5295 TIP3 OH2  OT    -0.834000       15.9994           0
    9617 WTD1 5295 TIP3 H1   HT     0.417000        1.0079           0
    9618 WTD1 5295 TIP3 H2   HT     0.417000        1.0079           0
    9619 WTD1 5296 TIP3 OH2  OT    -0.834000       15.9994           0
    9620 WTD1 5296 TIP3 H1   HT     0.417000        1.0079           0
    9621 WTD1 5296 TIP3 H2   HT     0.417000        1.0079           0
    9622 WTD1 5315 TIP3 OH2  OT    -0.834000       15.9994           0
    9623 WTD1 5315 TIP3 H1   HT     0.417000        1.0079           0
    9624 WTD1 5315 TIP3 H2   HT     0.417000        1.0079           0
    9625 WTD1 5317 TIP3 OH2  OT    -0.834000       15.9994           0
    9626 WTD1 5317 TIP3 H1   HT     0.417000        1.0079           0
    9627 WTD1 5317 TIP3 H2   HT     0.417000        1.0079           0
    9628 WTD1 5319 TIP3 OH2  OT    -0.834000       15.9994           0
    9629 WTD1 5319 TIP3 H1   HT     0.417000        1.0079           0
    9630 WTD1 5319 TIP3 H2   HT     0.417000        1.0079           0
    9631 WTD1 5335 TIP3 OH2  OT    -0.834000       15.9994           0
    9632 WTD1 5335 TIP3 H1   HT     0.417000        1.0079           0
    9633 WTD1 5335 TIP3 H2   HT     0.417000        1.0079           0
    9634 WTD1 5336 TIP3 OH2  OT    -0.834000       15.9994           0
    9635 WTD1 5336 TIP3 H1   HT     0.417000        1.0079           0
    9636 WTD1 5336 TIP3 H2   HT     0.417000        1.0079           0
    9637 WTD1 5339 TIP3 OH2  OT    -0.834000       15.9994           0
    9638 WTD1 5339 TIP3 H1   HT     0.417000        1.0079           0
    9639 WTD1 5339 TIP3 H2   HT     0.417000        1.0079           0
    9640 WTD1 5355 TIP3 OH2  OT    -0.834000       15.9994           0
    9641 WTD1 5355 TIP3 H1   HT     0.417000        1.0079           0
    9642 WTD1 5355 TIP3 H2   HT     0.417000        1.0079           0
    9643 WTD1 5356 TIP3 OH2  OT    -0.834000       15.9994           0
    9644 WTD1 5356 TIP3 H1   HT     0.417000        1.0079           0
    9645 WTD1 5356 TIP3 H2   HT     0.417000        1.0079           0
    9646 WTD1 5357 TIP3 OH2  OT    -0.834000       15.9994           0
    9647 WTD1 5357 TIP3 H1   HT     0.417000        1.0079           0
    9648 WTD1 5357 TIP3 H2   HT     0.417000        1.0079           0
    9649 WTD1 5358 TIP3 OH2  OT    -0.834000       15.9994           0
    9650 WTD1 5358 TIP3 H1   HT     0.417000        1.0079           0
    9651 WTD1 5358 TIP3 H2   HT     0.417000        1.0079           0
    9652 WTD1 5359 TIP3 OH2  OT    -0.834000       15.9994           0
    9653 WTD1 5359 TIP3 H1   HT     0.417000        1.0079           0
    9654 WTD1 5359 TIP3 H2   HT     0.417000        1.0079           0
    9655 WTD1 5360 TIP3 OH2  OT    -0.834000       15.9994           0
    9656 WTD1 5360 TIP3 H1   HT     0.417000        1.0079           0
    9657 WTD1 5360 TIP3 H2   HT     0.417000        1.0079           0
    9658 WTD1 5375 TIP3 OH2  OT    -0.834000       15.9994           0
    9659 WTD1 5375 TIP3 H1   HT     0.417000        1.0079           0
    9660 WTD1 5375 TIP3 H2   HT     0.417000        1.0079           0
    9661 WTD1 5377 TIP3 OH2  OT    -0.834000       15.9994           0
    9662 WTD1 5377 TIP3 H1   HT     0.417000        1.0079           0
    9663 WTD1 5377 TIP3 H2   HT     0.417000        1.0079           0
    9664 WTD1 5378 TIP3 OH2  OT    -0.834000       15.9994           0
    9665 WTD1 5378 TIP3 H1   HT     0.417000        1.0079           0
    9666 WTD1 5378 TIP3 H2   HT     0.417000        1.0079           0
    9667 WTD1 5380 TIP3 OH2  OT    -0.834000       15.9994           0
    9668 WTD1 5380 TIP3 H1   HT     0.417000        1.0079           0
    9669 WTD1 5380 TIP3 H2   HT     0.417000        1.0079           0
    9670 WTD1 5381 TIP3 OH2  OT    -0.834000       15.9994           0
    9671 WTD1 5381 TIP3 H1   HT     0.417000        1.0079           0
    9672 WTD1 5381 TIP3 H2   HT     0.417000        1.0079           0
    9673 WTD1 5383 TIP3 OH2  OT    -0.834000       15.9994           0
    9674 WTD1 5383 TIP3 H1   HT     0.417000        1.0079           0
    9675 WTD1 5383 TIP3 H2   HT     0.417000        1.0079           0
    9676 WTD1 5393 TIP3 OH2  OT    -0.834000       15.9994           0
    9677 WTD1 5393 TIP3 H1   HT     0.417000        1.0079           0
    9678 WTD1 5393 TIP3 H2   HT     0.417000        1.0079           0
    9679 WTD1 5396 TIP3 OH2  OT    -0.834000       15.9994           0
    9680 WTD1 5396 TIP3 H1   HT     0.417000        1.0079           0
    9681 WTD1 5396 TIP3 H2   HT     0.417000        1.0079           0
    9682 WTD1 5404 TIP3 OH2  OT    -0.834000       15.9994           0
    9683 WTD1 5404 TIP3 H1   HT     0.417000        1.0079           0
    9684 WTD1 5404 TIP3 H2   HT     0.417000        1.0079           0
    9685 WTD1 5418 TIP3 OH2  OT    -0.834000       15.9994           0
    9686 WTD1 5418 TIP3 H1   HT     0.417000        1.0079           0
    9687 WTD1 5418 TIP3 H2   HT     0.417000        1.0079           0
    9688 WTD1 5419 TIP3 OH2  OT    -0.834000       15.9994           0
    9689 WTD1 5419 TIP3 H1   HT     0.417000        1.0079           0
    9690 WTD1 5419 TIP3 H2   HT     0.417000        1.0079           0
    9691 WTD1 5422 TIP3 OH2  OT    -0.834000       15.9994           0
    9692 WTD1 5422 TIP3 H1   HT     0.417000        1.0079           0
    9693 WTD1 5422 TIP3 H2   HT     0.417000        1.0079           0
    9694 WTD1 5426 TIP3 OH2  OT    -0.834000       15.9994           0
    9695 WTD1 5426 TIP3 H1   HT     0.417000        1.0079           0
    9696 WTD1 5426 TIP3 H2   HT     0.417000        1.0079           0
    9697 WTD1 5434 TIP3 OH2  OT    -0.834000       15.9994           0
    9698 WTD1 5434 TIP3 H1   HT     0.417000        1.0079           0
    9699 WTD1 5434 TIP3 H2   HT     0.417000        1.0079           0
    9700 WTD1 5440 TIP3 OH2  OT    -0.834000       15.9994           0
    9701 WTD1 5440 TIP3 H1   HT     0.417000        1.0079           0
    9702 WTD1 5440 TIP3 H2   HT     0.417000        1.0079           0
    9703 WTD1 5442 TIP3 OH2  OT    -0.834000       15.9994           0
    9704 WTD1 5442 TIP3 H1   HT     0.417000        1.0079           0
    9705 WTD1 5442 TIP3 H2   HT     0.417000        1.0079           0
    9706 WTD1 5444 TIP3 OH2  OT    -0.834000       15.9994           0
    9707 WTD1 5444 TIP3 H1   HT     0.417000        1.0079           0
    9708 WTD1 5444 TIP3 H2   HT     0.417000        1.0079           0
    9709 WTD1 5445 TIP3 OH2  OT    -0.834000       15.9994           0
    9710 WTD1 5445 TIP3 H1   HT     0.417000        1.0079           0
    9711 WTD1 5445 TIP3 H2   HT     0.417000        1.0079           0
    9712 WTD1 5446 TIP3 OH2  OT    -0.834000       15.9994           0
    9713 WTD1 5446 TIP3 H1   HT     0.417000        1.0079           0
    9714 WTD1 5446 TIP3 H2   HT     0.417000        1.0079           0
    9715 WTD1 5460 TIP3 OH2  OT    -0.834000       15.9994           0
    9716 WTD1 5460 TIP3 H1   HT     0.417000        1.0079           0
    9717 WTD1 5460 TIP3 H2   HT     0.417000        1.0079           0
    9718 WTD1 5461 TIP3 OH2  OT    -0.834000       15.9994           0
    9719 WTD1 5461 TIP3 H1   HT     0.417000        1.0079           0
    9720 WTD1 5461 TIP3 H2   HT     0.417000        1.0079           0
    9721 WTD1 5462 TIP3 OH2  OT    -0.834000       15.9994           0
    9722 WTD1 5462 TIP3 H1   HT     0.417000        1.0079           0
    9723 WTD1 5462 TIP3 H2   HT     0.417000        1.0079           0
    9724 WTD1 5463 TIP3 OH2  OT    -0.834000       15.9994           0
    9725 WTD1 5463 TIP3 H1   HT     0.417000        1.0079           0
    9726 WTD1 5463 TIP3 H2   HT     0.417000        1.0079           0
    9727 WTD1 5466 TIP3 OH2  OT    -0.834000       15.9994           0
    9728 WTD1 5466 TIP3 H1   HT     0.417000        1.0079           0
    9729 WTD1 5466 TIP3 H2   HT     0.417000        1.0079           0
    9730 WTD1 5481 TIP3 OH2  OT    -0.834000       15.9994           0
    9731 WTD1 5481 TIP3 H1   HT     0.417000        1.0079           0
    9732 WTD1 5481 TIP3 H2   HT     0.417000        1.0079           0
    9733 WTD1 5482 TIP3 OH2  OT    -0.834000       15.9994           0
    9734 WTD1 5482 TIP3 H1   HT     0.417000        1.0079           0
    9735 WTD1 5482 TIP3 H2   HT     0.417000        1.0079           0
    9736 WTD1 5483 TIP3 OH2  OT    -0.834000       15.9994           0
    9737 WTD1 5483 TIP3 H1   HT     0.417000        1.0079           0
    9738 WTD1 5483 TIP3 H2   HT     0.417000        1.0079           0
    9739 WTD1 5486 TIP3 OH2  OT    -0.834000       15.9994           0
    9740 WTD1 5486 TIP3 H1   HT     0.417000        1.0079           0
    9741 WTD1 5486 TIP3 H2   HT     0.417000        1.0079           0
    9742 WTD1 5507 TIP3 OH2  OT    -0.834000       15.9994           0
    9743 WTD1 5507 TIP3 H1   HT     0.417000        1.0079           0
    9744 WTD1 5507 TIP3 H2   HT     0.417000        1.0079           0
    9745 WTD1 5510 TIP3 OH2  OT    -0.834000       15.9994           0
    9746 WTD1 5510 TIP3 H1   HT     0.417000        1.0079           0
    9747 WTD1 5510 TIP3 H2   HT     0.417000        1.0079           0
    9748 WTD1 5522 TIP3 OH2  OT    -0.834000       15.9994           0
    9749 WTD1 5522 TIP3 H1   HT     0.417000        1.0079           0
    9750 WTD1 5522 TIP3 H2   HT     0.417000        1.0079           0
    9751 WTD1 5526 TIP3 OH2  OT    -0.834000       15.9994           0
    9752 WTD1 5526 TIP3 H1   HT     0.417000        1.0079           0
    9753 WTD1 5526 TIP3 H2   HT     0.417000        1.0079           0
    9754 WTD1 5527 TIP3 OH2  OT    -0.834000       15.9994           0
    9755 WTD1 5527 TIP3 H1   HT     0.417000        1.0079           0
    9756 WTD1 5527 TIP3 H2   HT     0.417000        1.0079           0
    9757 WTD1 5545 TIP3 OH2  OT    -0.834000       15.9994           0
    9758 WTD1 5545 TIP3 H1   HT     0.417000        1.0079           0
    9759 WTD1 5545 TIP3 H2   HT     0.417000        1.0079           0
    9760 WTD1 5547 TIP3 OH2  OT    -0.834000       15.9994           0
    9761 WTD1 5547 TIP3 H1   HT     0.417000        1.0079           0
    9762 WTD1 5547 TIP3 H2   HT     0.417000        1.0079           0
    9763 WTD1 5548 TIP3 OH2  OT    -0.834000       15.9994           0
    9764 WTD1 5548 TIP3 H1   HT     0.417000        1.0079           0
    9765 WTD1 5548 TIP3 H2   HT     0.417000        1.0079           0
    9766 WTD1 5564 TIP3 OH2  OT    -0.834000       15.9994           0
    9767 WTD1 5564 TIP3 H1   HT     0.417000        1.0079           0
    9768 WTD1 5564 TIP3 H2   HT     0.417000        1.0079           0
    9769 WTD1 5566 TIP3 OH2  OT    -0.834000       15.9994           0
    9770 WTD1 5566 TIP3 H1   HT     0.417000        1.0079           0
    9771 WTD1 5566 TIP3 H2   HT     0.417000        1.0079           0
    9772 WTD1 5567 TIP3 OH2  OT    -0.834000       15.9994           0
    9773 WTD1 5567 TIP3 H1   HT     0.417000        1.0079           0
    9774 WTD1 5567 TIP3 H2   HT     0.417000        1.0079           0
    9775 WTD1 5568 TIP3 OH2  OT    -0.834000       15.9994           0
    9776 WTD1 5568 TIP3 H1   HT     0.417000        1.0079           0
    9777 WTD1 5568 TIP3 H2   HT     0.417000        1.0079           0
    9778 WTD1 5585 TIP3 OH2  OT    -0.834000       15.9994           0
    9779 WTD1 5585 TIP3 H1   HT     0.417000        1.0079           0
    9780 WTD1 5585 TIP3 H2   HT     0.417000        1.0079           0
    9781 WTD1 5590 TIP3 OH2  OT    -0.834000       15.9994           0
    9782 WTD1 5590 TIP3 H1   HT     0.417000        1.0079           0
    9783 WTD1 5590 TIP3 H2   HT     0.417000        1.0079           0
    9784 WTD1 5591 TIP3 OH2  OT    -0.834000       15.9994           0
    9785 WTD1 5591 TIP3 H1   HT     0.417000        1.0079           0
    9786 WTD1 5591 TIP3 H2   HT     0.417000        1.0079           0
    9787 WTD1 5592 TIP3 OH2  OT    -0.834000       15.9994           0
    9788 WTD1 5592 TIP3 H1   HT     0.417000        1.0079           0
    9789 WTD1 5592 TIP3 H2   HT     0.417000        1.0079           0
    9790 WTD1 5596 TIP3 OH2  OT    -0.834000       15.9994           0
    9791 WTD1 5596 TIP3 H1   HT     0.417000        1.0079           0
    9792 WTD1 5596 TIP3 H2   HT     0.417000        1.0079           0
    9793 WTD1 5606 TIP3 OH2  OT    -0.834000       15.9994           0
    9794 WTD1 5606 TIP3 H1   HT     0.417000        1.0079           0
    9795 WTD1 5606 TIP3 H2   HT     0.417000        1.0079           0
    9796 WTD1 5607 TIP3 OH2  OT    -0.834000       15.9994           0
    9797 WTD1 5607 TIP3 H1   HT     0.417000        1.0079           0
    9798 WTD1 5607 TIP3 H2   HT     0.417000        1.0079           0
    9799 WTD1 5608 TIP3 OH2  OT    -0.834000       15.9994           0
    9800 WTD1 5608 TIP3 H1   HT     0.417000        1.0079           0
    9801 WTD1 5608 TIP3 H2   HT     0.417000        1.0079           0
    9802 WTD1 5609 TIP3 OH2  OT    -0.834000       15.9994           0
    9803 WTD1 5609 TIP3 H1   HT     0.417000        1.0079           0
    9804 WTD1 5609 TIP3 H2   HT     0.417000        1.0079           0
    9805 WTD1 5610 TIP3 OH2  OT    -0.834000       15.9994           0
    9806 WTD1 5610 TIP3 H1   HT     0.417000        1.0079           0
    9807 WTD1 5610 TIP3 H2   HT     0.417000        1.0079           0
    9808 WTD1 5612 TIP3 OH2  OT    -0.834000       15.9994           0
    9809 WTD1 5612 TIP3 H1   HT     0.417000        1.0079           0
    9810 WTD1 5612 TIP3 H2   HT     0.417000        1.0079           0
    9811 WTD1 5615 TIP3 OH2  OT    -0.834000       15.9994           0
    9812 WTD1 5615 TIP3 H1   HT     0.417000        1.0079           0
    9813 WTD1 5615 TIP3 H2   HT     0.417000        1.0079           0
    9814 WTD1 5626 TIP3 OH2  OT    -0.834000       15.9994           0
    9815 WTD1 5626 TIP3 H1   HT     0.417000        1.0079           0
    9816 WTD1 5626 TIP3 H2   HT     0.417000        1.0079           0
    9817 WTD1 5630 TIP3 OH2  OT    -0.834000       15.9994           0
    9818 WTD1 5630 TIP3 H1   HT     0.417000        1.0079           0
    9819 WTD1 5630 TIP3 H2   HT     0.417000        1.0079           0
    9820 WTD1 5631 TIP3 OH2  OT    -0.834000       15.9994           0
    9821 WTD1 5631 TIP3 H1   HT     0.417000        1.0079           0
    9822 WTD1 5631 TIP3 H2   HT     0.417000        1.0079           0
    9823 WTD1 5632 TIP3 OH2  OT    -0.834000       15.9994           0
    9824 WTD1 5632 TIP3 H1   HT     0.417000        1.0079           0
    9825 WTD1 5632 TIP3 H2   HT     0.417000        1.0079           0
    9826 WTD1 5633 TIP3 OH2  OT    -0.834000       15.9994           0
    9827 WTD1 5633 TIP3 H1   HT     0.417000        1.0079           0
    9828 WTD1 5633 TIP3 H2   HT     0.417000        1.0079           0
    9829 WTD1 5637 TIP3 OH2  OT    -0.834000       15.9994           0
    9830 WTD1 5637 TIP3 H1   HT     0.417000        1.0079           0
    9831 WTD1 5637 TIP3 H2   HT     0.417000        1.0079           0
    9832 WTD1 5647 TIP3 OH2  OT    -0.834000       15.9994           0
    9833 WTD1 5647 TIP3 H1   HT     0.417000        1.0079           0
    9834 WTD1 5647 TIP3 H2   HT     0.417000        1.0079           0
    9835 WTD1 5650 TIP3 OH2  OT    -0.834000       15.9994           0
    9836 WTD1 5650 TIP3 H1   HT     0.417000        1.0079           0
    9837 WTD1 5650 TIP3 H2   HT     0.417000        1.0079           0
    9838 WTD1 5651 TIP3 OH2  OT    -0.834000       15.9994           0
    9839 WTD1 5651 TIP3 H1   HT     0.417000        1.0079           0
    9840 WTD1 5651 TIP3 H2   HT     0.417000        1.0079           0
    9841 WTD1 5653 TIP3 OH2  OT    -0.834000       15.9994           0
    9842 WTD1 5653 TIP3 H1   HT     0.417000        1.0079           0
    9843 WTD1 5653 TIP3 H2   HT     0.417000        1.0079           0
    9844 WTD1 5654 TIP3 OH2  OT    -0.834000       15.9994           0
    9845 WTD1 5654 TIP3 H1   HT     0.417000        1.0079           0
    9846 WTD1 5654 TIP3 H2   HT     0.417000        1.0079           0
    9847 WTD1 5656 TIP3 OH2  OT    -0.834000       15.9994           0
    9848 WTD1 5656 TIP3 H1   HT     0.417000        1.0079           0
    9849 WTD1 5656 TIP3 H2   HT     0.417000        1.0079           0
    9850 WTD1 5669 TIP3 OH2  OT    -0.834000       15.9994           0
    9851 WTD1 5669 TIP3 H1   HT     0.417000        1.0079           0
    9852 WTD1 5669 TIP3 H2   HT     0.417000        1.0079           0
    9853 WTD1 5673 TIP3 OH2  OT    -0.834000       15.9994           0
    9854 WTD1 5673 TIP3 H1   HT     0.417000        1.0079           0
    9855 WTD1 5673 TIP3 H2   HT     0.417000        1.0079           0
    9856 WTD1 5674 TIP3 OH2  OT    -0.834000       15.9994           0
    9857 WTD1 5674 TIP3 H1   HT     0.417000        1.0079           0
    9858 WTD1 5674 TIP3 H2   HT     0.417000        1.0079           0
    9859 WTD1 5676 TIP3 OH2  OT    -0.834000       15.9994           0
    9860 WTD1 5676 TIP3 H1   HT     0.417000        1.0079           0
    9861 WTD1 5676 TIP3 H2   HT     0.417000        1.0079           0
    9862 WTD1 5687 TIP3 OH2  OT    -0.834000       15.9994           0
    9863 WTD1 5687 TIP3 H1   HT     0.417000        1.0079           0
    9864 WTD1 5687 TIP3 H2   HT     0.417000        1.0079           0
    9865 WTD1 5690 TIP3 OH2  OT    -0.834000       15.9994           0
    9866 WTD1 5690 TIP3 H1   HT     0.417000        1.0079           0
    9867 WTD1 5690 TIP3 H2   HT     0.417000        1.0079           0
    9868 WTD1 5692 TIP3 OH2  OT    -0.834000       15.9994           0
    9869 WTD1 5692 TIP3 H1   HT     0.417000        1.0079           0
    9870 WTD1 5692 TIP3 H2   HT     0.417000        1.0079           0
    9871 WTD1 5710 TIP3 OH2  OT    -0.834000       15.9994           0
    9872 WTD1 5710 TIP3 H1   HT     0.417000        1.0079           0
    9873 WTD1 5710 TIP3 H2   HT     0.417000        1.0079           0
    9874 WTD1 5711 TIP3 OH2  OT    -0.834000       15.9994           0
    9875 WTD1 5711 TIP3 H1   HT     0.417000        1.0079           0
    9876 WTD1 5711 TIP3 H2   HT     0.417000        1.0079           0
    9877 WTD1 5717 TIP3 OH2  OT    -0.834000       15.9994           0
    9878 WTD1 5717 TIP3 H1   HT     0.417000        1.0079           0
    9879 WTD1 5717 TIP3 H2   HT     0.417000        1.0079           0
    9880 WTD1 5730 TIP3 OH2  OT    -0.834000       15.9994           0
    9881 WTD1 5730 TIP3 H1   HT     0.417000        1.0079           0
    9882 WTD1 5730 TIP3 H2   HT     0.417000        1.0079           0
    9883 WTD1 5734 TIP3 OH2  OT    -0.834000       15.9994           0
    9884 WTD1 5734 TIP3 H1   HT     0.417000        1.0079           0
    9885 WTD1 5734 TIP3 H2   HT     0.417000        1.0079           0
    9886 WTD1 5735 TIP3 OH2  OT    -0.834000       15.9994           0
    9887 WTD1 5735 TIP3 H1   HT     0.417000        1.0079           0
    9888 WTD1 5735 TIP3 H2   HT     0.417000        1.0079           0
    9889 WTD1 5755 TIP3 OH2  OT    -0.834000       15.9994           0
    9890 WTD1 5755 TIP3 H1   HT     0.417000        1.0079           0
    9891 WTD1 5755 TIP3 H2   HT     0.417000        1.0079           0
    9892 WTD1 5756 TIP3 OH2  OT    -0.834000       15.9994           0
    9893 WTD1 5756 TIP3 H1   HT     0.417000        1.0079           0
    9894 WTD1 5756 TIP3 H2   HT     0.417000        1.0079           0
    9895 WTD1 5758 TIP3 OH2  OT    -0.834000       15.9994           0
    9896 WTD1 5758 TIP3 H1   HT     0.417000        1.0079           0
    9897 WTD1 5758 TIP3 H2   HT     0.417000        1.0079           0
    9898 WTD1 5759 TIP3 OH2  OT    -0.834000       15.9994           0
    9899 WTD1 5759 TIP3 H1   HT     0.417000        1.0079           0
    9900 WTD1 5759 TIP3 H2   HT     0.417000        1.0079           0
    9901 WTD1 5775 TIP3 OH2  OT    -0.834000       15.9994           0
    9902 WTD1 5775 TIP3 H1   HT     0.417000        1.0079           0
    9903 WTD1 5775 TIP3 H2   HT     0.417000        1.0079           0
    9904 WTD1 5777 TIP3 OH2  OT    -0.834000       15.9994           0
    9905 WTD1 5777 TIP3 H1   HT     0.417000        1.0079           0
    9906 WTD1 5777 TIP3 H2   HT     0.417000        1.0079           0
    9907 WTD1 5778 TIP3 OH2  OT    -0.834000       15.9994           0
    9908 WTD1 5778 TIP3 H1   HT     0.417000        1.0079           0
    9909 WTD1 5778 TIP3 H2   HT     0.417000        1.0079           0
    9910 WTD1 5779 TIP3 OH2  OT    -0.834000       15.9994           0
    9911 WTD1 5779 TIP3 H1   HT     0.417000        1.0079           0
    9912 WTD1 5779 TIP3 H2   HT     0.417000        1.0079           0
    9913 WTD1 5797 TIP3 OH2  OT    -0.834000       15.9994           0
    9914 WTD1 5797 TIP3 H1   HT     0.417000        1.0079           0
    9915 WTD1 5797 TIP3 H2   HT     0.417000        1.0079           0
    9916 WTD1 5798 TIP3 OH2  OT    -0.834000       15.9994           0
    9917 WTD1 5798 TIP3 H1   HT     0.417000        1.0079           0
    9918 WTD1 5798 TIP3 H2   HT     0.417000        1.0079           0
    9919 WTD1 5800 TIP3 OH2  OT    -0.834000       15.9994           0
    9920 WTD1 5800 TIP3 H1   HT     0.417000        1.0079           0
    9921 WTD1 5800 TIP3 H2   HT     0.417000        1.0079           0
    9922 WTD1 5801 TIP3 OH2  OT    -0.834000       15.9994           0
    9923 WTD1 5801 TIP3 H1   HT     0.417000        1.0079           0
    9924 WTD1 5801 TIP3 H2   HT     0.417000        1.0079           0
    9925 WTD1 5818 TIP3 OH2  OT    -0.834000       15.9994           0
    9926 WTD1 5818 TIP3 H1   HT     0.417000        1.0079           0
    9927 WTD1 5818 TIP3 H2   HT     0.417000        1.0079           0
    9928 WTD1 5819 TIP3 OH2  OT    -0.834000       15.9994           0
    9929 WTD1 5819 TIP3 H1   HT     0.417000        1.0079           0
    9930 WTD1 5819 TIP3 H2   HT     0.417000        1.0079           0
    9931 WTD1 5820 TIP3 OH2  OT    -0.834000       15.9994           0
    9932 WTD1 5820 TIP3 H1   HT     0.417000        1.0079           0
    9933 WTD1 5820 TIP3 H2   HT     0.417000        1.0079           0
    9934 WTD1 5822 TIP3 OH2  OT    -0.834000       15.9994           0
    9935 WTD1 5822 TIP3 H1   HT     0.417000        1.0079           0
    9936 WTD1 5822 TIP3 H2   HT     0.417000        1.0079           0
    9937 WTD1 5836 TIP3 OH2  OT    -0.834000       15.9994           0
    9938 WTD1 5836 TIP3 H1   HT     0.417000        1.0079           0
    9939 WTD1 5836 TIP3 H2   HT     0.417000        1.0079           0
    9940 WTD1 5837 TIP3 OH2  OT    -0.834000       15.9994           0
    9941 WTD1 5837 TIP3 H1   HT     0.417000        1.0079           0
    9942 WTD1 5837 TIP3 H2   HT     0.417000        1.0079           0
    9943 WTD1 5839 TIP3 OH2  OT    -0.834000       15.9994           0
    9944 WTD1 5839 TIP3 H1   HT     0.417000        1.0079           0
    9945 WTD1 5839 TIP3 H2   HT     0.417000        1.0079           0
    9946 WTD1 5840 TIP3 OH2  OT    -0.834000       15.9994           0
    9947 WTD1 5840 TIP3 H1   HT     0.417000        1.0079           0
    9948 WTD1 5840 TIP3 H2   HT     0.417000        1.0079           0
    9949 WTD1 5841 TIP3 OH2  OT    -0.834000       15.9994           0
    9950 WTD1 5841 TIP3 H1   HT     0.417000        1.0079           0
    9951 WTD1 5841 TIP3 H2   HT     0.417000        1.0079           0
    9952 WTD1 5843 TIP3 OH2  OT    -0.834000       15.9994           0
    9953 WTD1 5843 TIP3 H1   HT     0.417000        1.0079           0
    9954 WTD1 5843 TIP3 H2   HT     0.417000        1.0079           0
    9955 WTD1 5859 TIP3 OH2  OT    -0.834000       15.9994           0
    9956 WTD1 5859 TIP3 H1   HT     0.417000        1.0079           0
    9957 WTD1 5859 TIP3 H2   HT     0.417000        1.0079           0
    9958 WTD1 5860 TIP3 OH2  OT    -0.834000       15.9994           0
    9959 WTD1 5860 TIP3 H1   HT     0.417000        1.0079           0
    9960 WTD1 5860 TIP3 H2   HT     0.417000        1.0079           0
    9961 WTD1 5861 TIP3 OH2  OT    -0.834000       15.9994           0
    9962 WTD1 5861 TIP3 H1   HT     0.417000        1.0079           0
    9963 WTD1 5861 TIP3 H2   HT     0.417000        1.0079           0
    9964 WTD1 5862 TIP3 OH2  OT    -0.834000       15.9994           0
    9965 WTD1 5862 TIP3 H1   HT     0.417000        1.0079           0
    9966 WTD1 5862 TIP3 H2   HT     0.417000        1.0079           0
    9967 WTD1 5863 TIP3 OH2  OT    -0.834000       15.9994           0
    9968 WTD1 5863 TIP3 H1   HT     0.417000        1.0079           0
    9969 WTD1 5863 TIP3 H2   HT     0.417000        1.0079           0
    9970 WTD1 5881 TIP3 OH2  OT    -0.834000       15.9994           0
    9971 WTD1 5881 TIP3 H1   HT     0.417000        1.0079           0
    9972 WTD1 5881 TIP3 H2   HT     0.417000        1.0079           0
    9973 WTD1 5883 TIP3 OH2  OT    -0.834000       15.9994           0
    9974 WTD1 5883 TIP3 H1   HT     0.417000        1.0079           0
    9975 WTD1 5883 TIP3 H2   HT     0.417000        1.0079           0
    9976 WTD1 5884 TIP3 OH2  OT    -0.834000       15.9994           0
    9977 WTD1 5884 TIP3 H1   HT     0.417000        1.0079           0
    9978 WTD1 5884 TIP3 H2   HT     0.417000        1.0079           0
    9979 WTD1 5886 TIP3 OH2  OT    -0.834000       15.9994           0
    9980 WTD1 5886 TIP3 H1   HT     0.417000        1.0079           0
    9981 WTD1 5886 TIP3 H2   HT     0.417000        1.0079           0
    9982 WTD1 5887 TIP3 OH2  OT    -0.834000       15.9994           0
    9983 WTD1 5887 TIP3 H1   HT     0.417000        1.0079           0
    9984 WTD1 5887 TIP3 H2   HT     0.417000        1.0079           0
    9985 WTD1 5889 TIP3 OH2  OT    -0.834000       15.9994           0
    9986 WTD1 5889 TIP3 H1   HT     0.417000        1.0079           0
    9987 WTD1 5889 TIP3 H2   HT     0.417000        1.0079           0
    9988 WTD1 5899 TIP3 OH2  OT    -0.834000       15.9994           0
    9989 WTD1 5899 TIP3 H1   HT     0.417000        1.0079           0
    9990 WTD1 5899 TIP3 H2   HT     0.417000        1.0079           0
    9991 WTD1 5901 TIP3 OH2  OT    -0.834000       15.9994           0
    9992 WTD1 5901 TIP3 H1   HT     0.417000        1.0079           0
    9993 WTD1 5901 TIP3 H2   HT     0.417000        1.0079           0
    9994 WTD1 5903 TIP3 OH2  OT    -0.834000       15.9994           0
    9995 WTD1 5903 TIP3 H1   HT     0.417000        1.0079           0
    9996 WTD1 5903 TIP3 H2   HT     0.417000        1.0079           0
    9997 WTD1 5904 TIP3 OH2  OT    -0.834000       15.9994           0
    9998 WTD1 5904 TIP3 H1   HT     0.417000        1.0079           0
    9999 WTD1 5904 TIP3 H2   HT     0.417000        1.0079           0
   10000 WTD1 5909 TIP3 OH2  OT    -0.834000       15.9994           0
   10001 WTD1 5909 TIP3 H1   HT     0.417000        1.0079           0
   10002 WTD1 5909 TIP3 H2   HT     0.417000        1.0079           0
   10003 WTD1 5920 TIP3 OH2  OT    -0.834000       15.9994           0
   10004 WTD1 5920 TIP3 H1   HT     0.417000        1.0079           0
   10005 WTD1 5920 TIP3 H2   HT     0.417000        1.0079           0
   10006 WTD1 5925 TIP3 OH2  OT    -0.834000       15.9994           0
   10007 WTD1 5925 TIP3 H1   HT     0.417000        1.0079           0
   10008 WTD1 5925 TIP3 H2   HT     0.417000        1.0079           0
   10009 WTD1 5926 TIP3 OH2  OT    -0.834000       15.9994           0
   10010 WTD1 5926 TIP3 H1   HT     0.417000        1.0079           0
   10011 WTD1 5926 TIP3 H2   HT     0.417000        1.0079           0
   10012 WTD1 5927 TIP3 OH2  OT    -0.834000       15.9994           0
   10013 WTD1 5927 TIP3 H1   HT     0.417000        1.0079           0
   10014 WTD1 5927 TIP3 H2   HT     0.417000        1.0079           0
   10015 WTD1 5946 TIP3 OH2  OT    -0.834000       15.9994           0
   10016 WTD1 5946 TIP3 H1   HT     0.417000        1.0079           0
   10017 WTD1 5946 TIP3 H2   HT     0.417000        1.0079           0
   10018 WTD1 5950 TIP3 OH2  OT    -0.834000       15.9994           0
   10019 WTD1 5950 TIP3 H1   HT     0.417000        1.0079           0
   10020 WTD1 5950 TIP3 H2   HT     0.417000        1.0079           0
   10021 WTD1 5965 TIP3 OH2  OT    -0.834000       15.9994           0
   10022 WTD1 5965 TIP3 H1   HT     0.417000        1.0079           0
   10023 WTD1 5965 TIP3 H2   HT     0.417000        1.0079           0
   10024 WTD1 5966 TIP3 OH2  OT    -0.834000       15.9994           0
   10025 WTD1 5966 TIP3 H1   HT     0.417000        1.0079           0
   10026 WTD1 5966 TIP3 H2   HT     0.417000        1.0079           0
   10027 WTD1 5969 TIP3 OH2  OT    -0.834000       15.9994           0
   10028 WTD1 5969 TIP3 H1   HT     0.417000        1.0079           0
   10029 WTD1 5969 TIP3 H2   HT     0.417000        1.0079           0
   10030 WTD1 5986 TIP3 OH2  OT    -0.834000       15.9994           0
   10031 WTD1 5986 TIP3 H1   HT     0.417000        1.0079           0
   10032 WTD1 5986 TIP3 H2   HT     0.417000        1.0079           0
   10033 WTD1 5987 TIP3 OH2  OT    -0.834000       15.9994           0
   10034 WTD1 5987 TIP3 H1   HT     0.417000        1.0079           0
   10035 WTD1 5987 TIP3 H2   HT     0.417000        1.0079           0
   10036 WTD1 5988 TIP3 OH2  OT    -0.834000       15.9994           0
   10037 WTD1 5988 TIP3 H1   HT     0.417000        1.0079           0
   10038 WTD1 5988 TIP3 H2   HT     0.417000        1.0079           0
   10039 WTD1 5989 TIP3 OH2  OT    -0.834000       15.9994           0
   10040 WTD1 5989 TIP3 H1   HT     0.417000        1.0079           0
   10041 WTD1 5989 TIP3 H2   HT     0.417000        1.0079           0
   10042 WTD1 5990 TIP3 OH2  OT    -0.834000       15.9994           0
   10043 WTD1 5990 TIP3 H1   HT     0.417000        1.0079           0
   10044 WTD1 5990 TIP3 H2   HT     0.417000        1.0079           0
   10045 WTD1 6006 TIP3 OH2  OT    -0.834000       15.9994           0
   10046 WTD1 6006 TIP3 H1   HT     0.417000        1.0079           0
   10047 WTD1 6006 TIP3 H2   HT     0.417000        1.0079           0
   10048 WTD1 6026 TIP3 OH2  OT    -0.834000       15.9994           0
   10049 WTD1 6026 TIP3 H1   HT     0.417000        1.0079           0
   10050 WTD1 6026 TIP3 H2   HT     0.417000        1.0079           0
   10051 WTD1 6027 TIP3 OH2  OT    -0.834000       15.9994           0
   10052 WTD1 6027 TIP3 H1   HT     0.417000        1.0079           0
   10053 WTD1 6027 TIP3 H2   HT     0.417000        1.0079           0
   10054 WTD1 6030 TIP3 OH2  OT    -0.834000       15.9994           0
   10055 WTD1 6030 TIP3 H1   HT     0.417000        1.0079           0
   10056 WTD1 6030 TIP3 H2   HT     0.417000        1.0079           0
   10057 WTD1 6031 TIP3 OH2  OT    -0.834000       15.9994           0
   10058 WTD1 6031 TIP3 H1   HT     0.417000        1.0079           0
   10059 WTD1 6031 TIP3 H2   HT     0.417000        1.0079           0
   10060 WTD1 6046 TIP3 OH2  OT    -0.834000       15.9994           0
   10061 WTD1 6046 TIP3 H1   HT     0.417000        1.0079           0
   10062 WTD1 6046 TIP3 H2   HT     0.417000        1.0079           0
   10063 WTD1 6048 TIP3 OH2  OT    -0.834000       15.9994           0
   10064 WTD1 6048 TIP3 H1   HT     0.417000        1.0079           0
   10065 WTD1 6048 TIP3 H2   HT     0.417000        1.0079           0
   10066 WTD1 6049 TIP3 OH2  OT    -0.834000       15.9994           0
   10067 WTD1 6049 TIP3 H1   HT     0.417000        1.0079           0
   10068 WTD1 6049 TIP3 H2   HT     0.417000        1.0079           0
   10069 WTD1 6050 TIP3 OH2  OT    -0.834000       15.9994           0
   10070 WTD1 6050 TIP3 H1   HT     0.417000        1.0079           0
   10071 WTD1 6050 TIP3 H2   HT     0.417000        1.0079           0
   10072 WTD1 6051 TIP3 OH2  OT    -0.834000       15.9994           0
   10073 WTD1 6051 TIP3 H1   HT     0.417000        1.0079           0
   10074 WTD1 6051 TIP3 H2   HT     0.417000        1.0079           0
   10075 WTD1 6054 TIP3 OH2  OT    -0.834000       15.9994           0
   10076 WTD1 6054 TIP3 H1   HT     0.417000        1.0079           0
   10077 WTD1 6054 TIP3 H2   HT     0.417000        1.0079           0
   10078 WTD1 6068 TIP3 OH2  OT    -0.834000       15.9994           0
   10079 WTD1 6068 TIP3 H1   HT     0.417000        1.0079           0
   10080 WTD1 6068 TIP3 H2   HT     0.417000        1.0079           0
   10081 WTD1 6071 TIP3 OH2  OT    -0.834000       15.9994           0
   10082 WTD1 6071 TIP3 H1   HT     0.417000        1.0079           0
   10083 WTD1 6071 TIP3 H2   HT     0.417000        1.0079           0
   10084 WTD1 6072 TIP3 OH2  OT    -0.834000       15.9994           0
   10085 WTD1 6072 TIP3 H1   HT     0.417000        1.0079           0
   10086 WTD1 6072 TIP3 H2   HT     0.417000        1.0079           0
   10087 WTD1 6073 TIP3 OH2  OT    -0.834000       15.9994           0
   10088 WTD1 6073 TIP3 H1   HT     0.417000        1.0079           0
   10089 WTD1 6073 TIP3 H2   HT     0.417000        1.0079           0
   10090 WTD1 6074 TIP3 OH2  OT    -0.834000       15.9994           0
   10091 WTD1 6074 TIP3 H1   HT     0.417000        1.0079           0
   10092 WTD1 6074 TIP3 H2   HT     0.417000        1.0079           0
   10093 WTD1 6075 TIP3 OH2  OT    -0.834000       15.9994           0
   10094 WTD1 6075 TIP3 H1   HT     0.417000        1.0079           0
   10095 WTD1 6075 TIP3 H2   HT     0.417000        1.0079           0
   10096 WTD1 6089 TIP3 OH2  OT    -0.834000       15.9994           0
   10097 WTD1 6089 TIP3 H1   HT     0.417000        1.0079           0
   10098 WTD1 6089 TIP3 H2   HT     0.417000        1.0079           0
   10099 WTD1 6090 TIP3 OH2  OT    -0.834000       15.9994           0
   10100 WTD1 6090 TIP3 H1   HT     0.417000        1.0079           0
   10101 WTD1 6090 TIP3 H2   HT     0.417000        1.0079           0
   10102 WTD1 6091 TIP3 OH2  OT    -0.834000       15.9994           0
   10103 WTD1 6091 TIP3 H1   HT     0.417000        1.0079           0
   10104 WTD1 6091 TIP3 H2   HT     0.417000        1.0079           0
   10105 WTD1 6092 TIP3 OH2  OT    -0.834000       15.9994           0
   10106 WTD1 6092 TIP3 H1   HT     0.417000        1.0079           0
   10107 WTD1 6092 TIP3 H2   HT     0.417000        1.0079           0
   10108 WTD1 6093 TIP3 OH2  OT    -0.834000       15.9994           0
   10109 WTD1 6093 TIP3 H1   HT     0.417000        1.0079           0
   10110 WTD1 6093 TIP3 H2   HT     0.417000        1.0079           0
   10111 WTD1 6095 TIP3 OH2  OT    -0.834000       15.9994           0
   10112 WTD1 6095 TIP3 H1   HT     0.417000        1.0079           0
   10113 WTD1 6095 TIP3 H2   HT     0.417000        1.0079           0
   10114 WTD1 6096 TIP3 OH2  OT    -0.834000       15.9994           0
   10115 WTD1 6096 TIP3 H1   HT     0.417000        1.0079           0
   10116 WTD1 6096 TIP3 H2   HT     0.417000        1.0079           0
   10117 WTD1 6110 TIP3 OH2  OT    -0.834000       15.9994           0
   10118 WTD1 6110 TIP3 H1   HT     0.417000        1.0079           0
   10119 WTD1 6110 TIP3 H2   HT     0.417000        1.0079           0
   10120 WTD1 6112 TIP3 OH2  OT    -0.834000       15.9994           0
   10121 WTD1 6112 TIP3 H1   HT     0.417000        1.0079           0
   10122 WTD1 6112 TIP3 H2   HT     0.417000        1.0079           0
   10123 WTD1 6113 TIP3 OH2  OT    -0.834000       15.9994           0
   10124 WTD1 6113 TIP3 H1   HT     0.417000        1.0079           0
   10125 WTD1 6113 TIP3 H2   HT     0.417000        1.0079           0
   10126 WTD1 6116 TIP3 OH2  OT    -0.834000       15.9994           0
   10127 WTD1 6116 TIP3 H1   HT     0.417000        1.0079           0
   10128 WTD1 6116 TIP3 H2   HT     0.417000        1.0079           0
   10129 WTD1 6117 TIP3 OH2  OT    -0.834000       15.9994           0
   10130 WTD1 6117 TIP3 H1   HT     0.417000        1.0079           0
   10131 WTD1 6117 TIP3 H2   HT     0.417000        1.0079           0
   10132 WTD1 6132 TIP3 OH2  OT    -0.834000       15.9994           0
   10133 WTD1 6132 TIP3 H1   HT     0.417000        1.0079           0
   10134 WTD1 6132 TIP3 H2   HT     0.417000        1.0079           0
   10135 WTD1 6133 TIP3 OH2  OT    -0.834000       15.9994           0
   10136 WTD1 6133 TIP3 H1   HT     0.417000        1.0079           0
   10137 WTD1 6133 TIP3 H2   HT     0.417000        1.0079           0
   10138 WTD1 6134 TIP3 OH2  OT    -0.834000       15.9994           0
   10139 WTD1 6134 TIP3 H1   HT     0.417000        1.0079           0
   10140 WTD1 6134 TIP3 H2   HT     0.417000        1.0079           0
   10141 WTD1 6135 TIP3 OH2  OT    -0.834000       15.9994           0
   10142 WTD1 6135 TIP3 H1   HT     0.417000        1.0079           0
   10143 WTD1 6135 TIP3 H2   HT     0.417000        1.0079           0
   10144 WTD1 6136 TIP3 OH2  OT    -0.834000       15.9994           0
   10145 WTD1 6136 TIP3 H1   HT     0.417000        1.0079           0
   10146 WTD1 6136 TIP3 H2   HT     0.417000        1.0079           0
   10147 WTD1 6137 TIP3 OH2  OT    -0.834000       15.9994           0
   10148 WTD1 6137 TIP3 H1   HT     0.417000        1.0079           0
   10149 WTD1 6137 TIP3 H2   HT     0.417000        1.0079           0
   10150 WTD1 6138 TIP3 OH2  OT    -0.834000       15.9994           0
   10151 WTD1 6138 TIP3 H1   HT     0.417000        1.0079           0
   10152 WTD1 6138 TIP3 H2   HT     0.417000        1.0079           0
   10153 WTD1 6158 TIP3 OH2  OT    -0.834000       15.9994           0
   10154 WTD1 6158 TIP3 H1   HT     0.417000        1.0079           0
   10155 WTD1 6158 TIP3 H2   HT     0.417000        1.0079           0
   10156 WTD1 6160 TIP3 OH2  OT    -0.834000       15.9994           0
   10157 WTD1 6160 TIP3 H1   HT     0.417000        1.0079           0
   10158 WTD1 6160 TIP3 H2   HT     0.417000        1.0079           0
   10159 WTD1 6176 TIP3 OH2  OT    -0.834000       15.9994           0
   10160 WTD1 6176 TIP3 H1   HT     0.417000        1.0079           0
   10161 WTD1 6176 TIP3 H2   HT     0.417000        1.0079           0
   10162 WTD1 6177 TIP3 OH2  OT    -0.834000       15.9994           0
   10163 WTD1 6177 TIP3 H1   HT     0.417000        1.0079           0
   10164 WTD1 6177 TIP3 H2   HT     0.417000        1.0079           0
   10165 WTD1 6181 TIP3 OH2  OT    -0.834000       15.9994           0
   10166 WTD1 6181 TIP3 H1   HT     0.417000        1.0079           0
   10167 WTD1 6181 TIP3 H2   HT     0.417000        1.0079           0
   10168 WTD1 6182 TIP3 OH2  OT    -0.834000       15.9994           0
   10169 WTD1 6182 TIP3 H1   HT     0.417000        1.0079           0
   10170 WTD1 6182 TIP3 H2   HT     0.417000        1.0079           0
   10171 WTD1 6183 TIP3 OH2  OT    -0.834000       15.9994           0
   10172 WTD1 6183 TIP3 H1   HT     0.417000        1.0079           0
   10173 WTD1 6183 TIP3 H2   HT     0.417000        1.0079           0
   10174 WTD1 6195 TIP3 OH2  OT    -0.834000       15.9994           0
   10175 WTD1 6195 TIP3 H1   HT     0.417000        1.0079           0
   10176 WTD1 6195 TIP3 H2   HT     0.417000        1.0079           0
   10177 WTD1 6197 TIP3 OH2  OT    -0.834000       15.9994           0
   10178 WTD1 6197 TIP3 H1   HT     0.417000        1.0079           0
   10179 WTD1 6197 TIP3 H2   HT     0.417000        1.0079           0
   10180 WTD1 6198 TIP3 OH2  OT    -0.834000       15.9994           0
   10181 WTD1 6198 TIP3 H1   HT     0.417000        1.0079           0
   10182 WTD1 6198 TIP3 H2   HT     0.417000        1.0079           0
   10183 WTD1 6200 TIP3 OH2  OT    -0.834000       15.9994           0
   10184 WTD1 6200 TIP3 H1   HT     0.417000        1.0079           0
   10185 WTD1 6200 TIP3 H2   HT     0.417000        1.0079           0
   10186 WTD1 6215 TIP3 OH2  OT    -0.834000       15.9994           0
   10187 WTD1 6215 TIP3 H1   HT     0.417000        1.0079           0
   10188 WTD1 6215 TIP3 H2   HT     0.417000        1.0079           0
   10189 WTD1 6216 TIP3 OH2  OT    -0.834000       15.9994           0
   10190 WTD1 6216 TIP3 H1   HT     0.417000        1.0079           0
   10191 WTD1 6216 TIP3 H2   HT     0.417000        1.0079           0
   10192 WTD1 6218 TIP3 OH2  OT    -0.834000       15.9994           0
   10193 WTD1 6218 TIP3 H1   HT     0.417000        1.0079           0
   10194 WTD1 6218 TIP3 H2   HT     0.417000        1.0079           0
   10195 WTD1 6219 TIP3 OH2  OT    -0.834000       15.9994           0
   10196 WTD1 6219 TIP3 H1   HT     0.417000        1.0079           0
   10197 WTD1 6219 TIP3 H2   HT     0.417000        1.0079           0
   10198 WTD1 6220 TIP3 OH2  OT    -0.834000       15.9994           0
   10199 WTD1 6220 TIP3 H1   HT     0.417000        1.0079           0
   10200 WTD1 6220 TIP3 H2   HT     0.417000        1.0079           0
   10201 WTD1 6238 TIP3 OH2  OT    -0.834000       15.9994           0
   10202 WTD1 6238 TIP3 H1   HT     0.417000        1.0079           0
   10203 WTD1 6238 TIP3 H2   HT     0.417000        1.0079           0
   10204 WTD1 6239 TIP3 OH2  OT    -0.834000       15.9994           0
   10205 WTD1 6239 TIP3 H1   HT     0.417000        1.0079           0
   10206 WTD1 6239 TIP3 H2   HT     0.417000        1.0079           0
   10207 WTD1 6240 TIP3 OH2  OT    -0.834000       15.9994           0
   10208 WTD1 6240 TIP3 H1   HT     0.417000        1.0079           0
   10209 WTD1 6240 TIP3 H2   HT     0.417000        1.0079           0
   10210 WTD1 6241 TIP3 OH2  OT    -0.834000       15.9994           0
   10211 WTD1 6241 TIP3 H1   HT     0.417000        1.0079           0
   10212 WTD1 6241 TIP3 H2   HT     0.417000        1.0079           0
   10213 WTD1 6245 TIP3 OH2  OT    -0.834000       15.9994           0
   10214 WTD1 6245 TIP3 H1   HT     0.417000        1.0079           0
   10215 WTD1 6245 TIP3 H2   HT     0.417000        1.0079           0
   10216 WTD1 6246 TIP3 OH2  OT    -0.834000       15.9994           0
   10217 WTD1 6246 TIP3 H1   HT     0.417000        1.0079           0
   10218 WTD1 6246 TIP3 H2   HT     0.417000        1.0079           0
   10219 WTD1 6256 TIP3 OH2  OT    -0.834000       15.9994           0
   10220 WTD1 6256 TIP3 H1   HT     0.417000        1.0079           0
   10221 WTD1 6256 TIP3 H2   HT     0.417000        1.0079           0
   10222 WTD1 6258 TIP3 OH2  OT    -0.834000       15.9994           0
   10223 WTD1 6258 TIP3 H1   HT     0.417000        1.0079           0
   10224 WTD1 6258 TIP3 H2   HT     0.417000        1.0079           0
   10225 WTD1 6263 TIP3 OH2  OT    -0.834000       15.9994           0
   10226 WTD1 6263 TIP3 H1   HT     0.417000        1.0079           0
   10227 WTD1 6263 TIP3 H2   HT     0.417000        1.0079           0
   10228 WTD1 6281 TIP3 OH2  OT    -0.834000       15.9994           0
   10229 WTD1 6281 TIP3 H1   HT     0.417000        1.0079           0
   10230 WTD1 6281 TIP3 H2   HT     0.417000        1.0079           0
   10231 WTD1 6283 TIP3 OH2  OT    -0.834000       15.9994           0
   10232 WTD1 6283 TIP3 H1   HT     0.417000        1.0079           0
   10233 WTD1 6283 TIP3 H2   HT     0.417000        1.0079           0
   10234 WTD1 6284 TIP3 OH2  OT    -0.834000       15.9994           0
   10235 WTD1 6284 TIP3 H1   HT     0.417000        1.0079           0
   10236 WTD1 6284 TIP3 H2   HT     0.417000        1.0079           0
   10237 WTD1 6285 TIP3 OH2  OT    -0.834000       15.9994           0
   10238 WTD1 6285 TIP3 H1   HT     0.417000        1.0079           0
   10239 WTD1 6285 TIP3 H2   HT     0.417000        1.0079           0
   10240 WTD1 6297 TIP3 OH2  OT    -0.834000       15.9994           0
   10241 WTD1 6297 TIP3 H1   HT     0.417000        1.0079           0
   10242 WTD1 6297 TIP3 H2   HT     0.417000        1.0079           0
   10243 WTD1 6300 TIP3 OH2  OT    -0.834000       15.9994           0
   10244 WTD1 6300 TIP3 H1   HT     0.417000        1.0079           0
   10245 WTD1 6300 TIP3 H2   HT     0.417000        1.0079           0
   10246 WTD1 6303 TIP3 OH2  OT    -0.834000       15.9994           0
   10247 WTD1 6303 TIP3 H1   HT     0.417000        1.0079           0
   10248 WTD1 6303 TIP3 H2   HT     0.417000        1.0079           0
   10249 WTD1 6305 TIP3 OH2  OT    -0.834000       15.9994           0
   10250 WTD1 6305 TIP3 H1   HT     0.417000        1.0079           0
   10251 WTD1 6305 TIP3 H2   HT     0.417000        1.0079           0
   10252 WTD1 6311 TIP3 OH2  OT    -0.834000       15.9994           0
   10253 WTD1 6311 TIP3 H1   HT     0.417000        1.0079           0
   10254 WTD1 6311 TIP3 H2   HT     0.417000        1.0079           0
   10255 WTD1 6319 TIP3 OH2  OT    -0.834000       15.9994           0
   10256 WTD1 6319 TIP3 H1   HT     0.417000        1.0079           0
   10257 WTD1 6319 TIP3 H2   HT     0.417000        1.0079           0
   10258 WTD1 6323 TIP3 OH2  OT    -0.834000       15.9994           0
   10259 WTD1 6323 TIP3 H1   HT     0.417000        1.0079           0
   10260 WTD1 6323 TIP3 H2   HT     0.417000        1.0079           0
   10261 WTD1 6324 TIP3 OH2  OT    -0.834000       15.9994           0
   10262 WTD1 6324 TIP3 H1   HT     0.417000        1.0079           0
   10263 WTD1 6324 TIP3 H2   HT     0.417000        1.0079           0
   10264 WTD1 6326 TIP3 OH2  OT    -0.834000       15.9994           0
   10265 WTD1 6326 TIP3 H1   HT     0.417000        1.0079           0
   10266 WTD1 6326 TIP3 H2   HT     0.417000        1.0079           0
   10267 WTD1 6328 TIP3 OH2  OT    -0.834000       15.9994           0
   10268 WTD1 6328 TIP3 H1   HT     0.417000        1.0079           0
   10269 WTD1 6328 TIP3 H2   HT     0.417000        1.0079           0
   10270 WTD1 6341 TIP3 OH2  OT    -0.834000       15.9994           0
   10271 WTD1 6341 TIP3 H1   HT     0.417000        1.0079           0
   10272 WTD1 6341 TIP3 H2   HT     0.417000        1.0079           0
   10273 WTD1 6345 TIP3 OH2  OT    -0.834000       15.9994           0
   10274 WTD1 6345 TIP3 H1   HT     0.417000        1.0079           0
   10275 WTD1 6345 TIP3 H2   HT     0.417000        1.0079           0
   10276 WTD1 6348 TIP3 OH2  OT    -0.834000       15.9994           0
   10277 WTD1 6348 TIP3 H1   HT     0.417000        1.0079           0
   10278 WTD1 6348 TIP3 H2   HT     0.417000        1.0079           0
   10279 WTD1 6357 TIP3 OH2  OT    -0.834000       15.9994           0
   10280 WTD1 6357 TIP3 H1   HT     0.417000        1.0079           0
   10281 WTD1 6357 TIP3 H2   HT     0.417000        1.0079           0
   10282 WTD1 6369 TIP3 OH2  OT    -0.834000       15.9994           0
   10283 WTD1 6369 TIP3 H1   HT     0.417000        1.0079           0
   10284 WTD1 6369 TIP3 H2   HT     0.417000        1.0079           0
   10285 WTD1 6381 TIP3 OH2  OT    -0.834000       15.9994           0
   10286 WTD1 6381 TIP3 H1   HT     0.417000        1.0079           0
   10287 WTD1 6381 TIP3 H2   HT     0.417000        1.0079           0
   10288 WTD1 6388 TIP3 OH2  OT    -0.834000       15.9994           0
   10289 WTD1 6388 TIP3 H1   HT     0.417000        1.0079           0
   10290 WTD1 6388 TIP3 H2   HT     0.417000        1.0079           0
   10291 WTD1 6389 TIP3 OH2  OT    -0.834000       15.9994           0
   10292 WTD1 6389 TIP3 H1   HT     0.417000        1.0079           0
   10293 WTD1 6389 TIP3 H2   HT     0.417000        1.0079           0
   10294 WTD1 6390 TIP3 OH2  OT    -0.834000       15.9994           0
   10295 WTD1 6390 TIP3 H1   HT     0.417000        1.0079           0
   10296 WTD1 6390 TIP3 H2   HT     0.417000        1.0079           0
   10297 WTD1 6403 TIP3 OH2  OT    -0.834000       15.9994           0
   10298 WTD1 6403 TIP3 H1   HT     0.417000        1.0079           0
   10299 WTD1 6403 TIP3 H2   HT     0.417000        1.0079           0
   10300 WTD1 6404 TIP3 OH2  OT    -0.834000       15.9994           0
   10301 WTD1 6404 TIP3 H1   HT     0.417000        1.0079           0
   10302 WTD1 6404 TIP3 H2   HT     0.417000        1.0079           0
   10303 WTD1 6407 TIP3 OH2  OT    -0.834000       15.9994           0
   10304 WTD1 6407 TIP3 H1   HT     0.417000        1.0079           0
   10305 WTD1 6407 TIP3 H2   HT     0.417000        1.0079           0
   10306 WTD1 6408 TIP3 OH2  OT    -0.834000       15.9994           0
   10307 WTD1 6408 TIP3 H1   HT     0.417000        1.0079           0
   10308 WTD1 6408 TIP3 H2   HT     0.417000        1.0079           0
   10309 WTD1 6409 TIP3 OH2  OT    -0.834000       15.9994           0
   10310 WTD1 6409 TIP3 H1   HT     0.417000        1.0079           0
   10311 WTD1 6409 TIP3 H2   HT     0.417000        1.0079           0
   10312 WTD1 6410 TIP3 OH2  OT    -0.834000       15.9994           0
   10313 WTD1 6410 TIP3 H1   HT     0.417000        1.0079           0
   10314 WTD1 6410 TIP3 H2   HT     0.417000        1.0079           0
   10315 WTD1 6425 TIP3 OH2  OT    -0.834000       15.9994           0
   10316 WTD1 6425 TIP3 H1   HT     0.417000        1.0079           0
   10317 WTD1 6425 TIP3 H2   HT     0.417000        1.0079           0
   10318 WTD1 6428 TIP3 OH2  OT    -0.834000       15.9994           0
   10319 WTD1 6428 TIP3 H1   HT     0.417000        1.0079           0
   10320 WTD1 6428 TIP3 H2   HT     0.417000        1.0079           0
   10321 WTD1 6429 TIP3 OH2  OT    -0.834000       15.9994           0
   10322 WTD1 6429 TIP3 H1   HT     0.417000        1.0079           0
   10323 WTD1 6429 TIP3 H2   HT     0.417000        1.0079           0
   10324 WTD1 6433 TIP3 OH2  OT    -0.834000       15.9994           0
   10325 WTD1 6433 TIP3 H1   HT     0.417000        1.0079           0
   10326 WTD1 6433 TIP3 H2   HT     0.417000        1.0079           0
   10327 WTD1 6444 TIP3 OH2  OT    -0.834000       15.9994           0
   10328 WTD1 6444 TIP3 H1   HT     0.417000        1.0079           0
   10329 WTD1 6444 TIP3 H2   HT     0.417000        1.0079           0
   10330 WTD1 6446 TIP3 OH2  OT    -0.834000       15.9994           0
   10331 WTD1 6446 TIP3 H1   HT     0.417000        1.0079           0
   10332 WTD1 6446 TIP3 H2   HT     0.417000        1.0079           0
   10333 WTD1 6448 TIP3 OH2  OT    -0.834000       15.9994           0
   10334 WTD1 6448 TIP3 H1   HT     0.417000        1.0079           0
   10335 WTD1 6448 TIP3 H2   HT     0.417000        1.0079           0
   10336 WTD1 6451 TIP3 OH2  OT    -0.834000       15.9994           0
   10337 WTD1 6451 TIP3 H1   HT     0.417000        1.0079           0
   10338 WTD1 6451 TIP3 H2   HT     0.417000        1.0079           0
   10339 WTD1 6452 TIP3 OH2  OT    -0.834000       15.9994           0
   10340 WTD1 6452 TIP3 H1   HT     0.417000        1.0079           0
   10341 WTD1 6452 TIP3 H2   HT     0.417000        1.0079           0
   10342 WTD1 6454 TIP3 OH2  OT    -0.834000       15.9994           0
   10343 WTD1 6454 TIP3 H1   HT     0.417000        1.0079           0
   10344 WTD1 6454 TIP3 H2   HT     0.417000        1.0079           0
   10345 WTD1 6469 TIP3 OH2  OT    -0.834000       15.9994           0
   10346 WTD1 6469 TIP3 H1   HT     0.417000        1.0079           0
   10347 WTD1 6469 TIP3 H2   HT     0.417000        1.0079           0
   10348 WTD1 6470 TIP3 OH2  OT    -0.834000       15.9994           0
   10349 WTD1 6470 TIP3 H1   HT     0.417000        1.0079           0
   10350 WTD1 6470 TIP3 H2   HT     0.417000        1.0079           0
   10351 WTD1 6471 TIP3 OH2  OT    -0.834000       15.9994           0
   10352 WTD1 6471 TIP3 H1   HT     0.417000        1.0079           0
   10353 WTD1 6471 TIP3 H2   HT     0.417000        1.0079           0
   10354 WTD1 6472 TIP3 OH2  OT    -0.834000       15.9994           0
   10355 WTD1 6472 TIP3 H1   HT     0.417000        1.0079           0
   10356 WTD1 6472 TIP3 H2   HT     0.417000        1.0079           0
   10357 WTD1 6474 TIP3 OH2  OT    -0.834000       15.9994           0
   10358 WTD1 6474 TIP3 H1   HT     0.417000        1.0079           0
   10359 WTD1 6474 TIP3 H2   HT     0.417000        1.0079           0
   10360 WTD1 6490 TIP3 OH2  OT    -0.834000       15.9994           0
   10361 WTD1 6490 TIP3 H1   HT     0.417000        1.0079           0
   10362 WTD1 6490 TIP3 H2   HT     0.417000        1.0079           0
   10363 WTD1 6493 TIP3 OH2  OT    -0.834000       15.9994           0
   10364 WTD1 6493 TIP3 H1   HT     0.417000        1.0079           0
   10365 WTD1 6493 TIP3 H2   HT     0.417000        1.0079           0
   10366 WTD1 6495 TIP3 OH2  OT    -0.834000       15.9994           0
   10367 WTD1 6495 TIP3 H1   HT     0.417000        1.0079           0
   10368 WTD1 6495 TIP3 H2   HT     0.417000        1.0079           0
   10369 WTD1 6509 TIP3 OH2  OT    -0.834000       15.9994           0
   10370 WTD1 6509 TIP3 H1   HT     0.417000        1.0079           0
   10371 WTD1 6509 TIP3 H2   HT     0.417000        1.0079           0
   10372 WTD1 6511 TIP3 OH2  OT    -0.834000       15.9994           0
   10373 WTD1 6511 TIP3 H1   HT     0.417000        1.0079           0
   10374 WTD1 6511 TIP3 H2   HT     0.417000        1.0079           0
   10375 WTD1 6512 TIP3 OH2  OT    -0.834000       15.9994           0
   10376 WTD1 6512 TIP3 H1   HT     0.417000        1.0079           0
   10377 WTD1 6512 TIP3 H2   HT     0.417000        1.0079           0
   10378 WTD1 6513 TIP3 OH2  OT    -0.834000       15.9994           0
   10379 WTD1 6513 TIP3 H1   HT     0.417000        1.0079           0
   10380 WTD1 6513 TIP3 H2   HT     0.417000        1.0079           0
   10381 WTD1 6514 TIP3 OH2  OT    -0.834000       15.9994           0
   10382 WTD1 6514 TIP3 H1   HT     0.417000        1.0079           0
   10383 WTD1 6514 TIP3 H2   HT     0.417000        1.0079           0
   10384 WTD1 6515 TIP3 OH2  OT    -0.834000       15.9994           0
   10385 WTD1 6515 TIP3 H1   HT     0.417000        1.0079           0
   10386 WTD1 6515 TIP3 H2   HT     0.417000        1.0079           0
   10387 WTD1 6519 TIP3 OH2  OT    -0.834000       15.9994           0
   10388 WTD1 6519 TIP3 H1   HT     0.417000        1.0079           0
   10389 WTD1 6519 TIP3 H2   HT     0.417000        1.0079           0
   10390 WTD1 6532 TIP3 OH2  OT    -0.834000       15.9994           0
   10391 WTD1 6532 TIP3 H1   HT     0.417000        1.0079           0
   10392 WTD1 6532 TIP3 H2   HT     0.417000        1.0079           0
   10393 WTD1 6533 TIP3 OH2  OT    -0.834000       15.9994           0
   10394 WTD1 6533 TIP3 H1   HT     0.417000        1.0079           0
   10395 WTD1 6533 TIP3 H2   HT     0.417000        1.0079           0
   10396 WTD1 6535 TIP3 OH2  OT    -0.834000       15.9994           0
   10397 WTD1 6535 TIP3 H1   HT     0.417000        1.0079           0
   10398 WTD1 6535 TIP3 H2   HT     0.417000        1.0079           0
   10399 WTD1 6537 TIP3 OH2  OT    -0.834000       15.9994           0
   10400 WTD1 6537 TIP3 H1   HT     0.417000        1.0079           0
   10401 WTD1 6537 TIP3 H2   HT     0.417000        1.0079           0
   10402 WTD1 6549 TIP3 OH2  OT    -0.834000       15.9994           0
   10403 WTD1 6549 TIP3 H1   HT     0.417000        1.0079           0
   10404 WTD1 6549 TIP3 H2   HT     0.417000        1.0079           0
   10405 WTD1 6551 TIP3 OH2  OT    -0.834000       15.9994           0
   10406 WTD1 6551 TIP3 H1   HT     0.417000        1.0079           0
   10407 WTD1 6551 TIP3 H2   HT     0.417000        1.0079           0
   10408 WTD1 6552 TIP3 OH2  OT    -0.834000       15.9994           0
   10409 WTD1 6552 TIP3 H1   HT     0.417000        1.0079           0
   10410 WTD1 6552 TIP3 H2   HT     0.417000        1.0079           0
   10411 WTD1 6553 TIP3 OH2  OT    -0.834000       15.9994           0
   10412 WTD1 6553 TIP3 H1   HT     0.417000        1.0079           0
   10413 WTD1 6553 TIP3 H2   HT     0.417000        1.0079           0
   10414 WTD1 6555 TIP3 OH2  OT    -0.834000       15.9994           0
   10415 WTD1 6555 TIP3 H1   HT     0.417000        1.0079           0
   10416 WTD1 6555 TIP3 H2   HT     0.417000        1.0079           0
   10417 WTD1 6556 TIP3 OH2  OT    -0.834000       15.9994           0
   10418 WTD1 6556 TIP3 H1   HT     0.417000        1.0079           0
   10419 WTD1 6556 TIP3 H2   HT     0.417000        1.0079           0
   10420 WTD1 6575 TIP3 OH2  OT    -0.834000       15.9994           0
   10421 WTD1 6575 TIP3 H1   HT     0.417000        1.0079           0
   10422 WTD1 6575 TIP3 H2   HT     0.417000        1.0079           0
   10423 WTD1 6579 TIP3 OH2  OT    -0.834000       15.9994           0
   10424 WTD1 6579 TIP3 H1   HT     0.417000        1.0079           0
   10425 WTD1 6579 TIP3 H2   HT     0.417000        1.0079           0
   10426 WTD1 6597 TIP3 OH2  OT    -0.834000       15.9994           0
   10427 WTD1 6597 TIP3 H1   HT     0.417000        1.0079           0
   10428 WTD1 6597 TIP3 H2   HT     0.417000        1.0079           0
   10429 WTD1 6600 TIP3 OH2  OT    -0.834000       15.9994           0
   10430 WTD1 6600 TIP3 H1   HT     0.417000        1.0079           0
   10431 WTD1 6600 TIP3 H2   HT     0.417000        1.0079           0
   10432 WTD1 6615 TIP3 OH2  OT    -0.834000       15.9994           0
   10433 WTD1 6615 TIP3 H1   HT     0.417000        1.0079           0
   10434 WTD1 6615 TIP3 H2   HT     0.417000        1.0079           0
   10435 WTD1 6616 TIP3 OH2  OT    -0.834000       15.9994           0
   10436 WTD1 6616 TIP3 H1   HT     0.417000        1.0079           0
   10437 WTD1 6616 TIP3 H2   HT     0.417000        1.0079           0
   10438 WTD1 6621 TIP3 OH2  OT    -0.834000       15.9994           0
   10439 WTD1 6621 TIP3 H1   HT     0.417000        1.0079           0
   10440 WTD1 6621 TIP3 H2   HT     0.417000        1.0079           0
   10441 WTD1 6623 TIP3 OH2  OT    -0.834000       15.9994           0
   10442 WTD1 6623 TIP3 H1   HT     0.417000        1.0079           0
   10443 WTD1 6623 TIP3 H2   HT     0.417000        1.0079           0
   10444 WTD1 6633 TIP3 OH2  OT    -0.834000       15.9994           0
   10445 WTD1 6633 TIP3 H1   HT     0.417000        1.0079           0
   10446 WTD1 6633 TIP3 H2   HT     0.417000        1.0079           0
   10447 WTD1 6636 TIP3 OH2  OT    -0.834000       15.9994           0
   10448 WTD1 6636 TIP3 H1   HT     0.417000        1.0079           0
   10449 WTD1 6636 TIP3 H2   HT     0.417000        1.0079           0
   10450 WTD1 6637 TIP3 OH2  OT    -0.834000       15.9994           0
   10451 WTD1 6637 TIP3 H1   HT     0.417000        1.0079           0
   10452 WTD1 6637 TIP3 H2   HT     0.417000        1.0079           0
   10453 WTD1 6638 TIP3 OH2  OT    -0.834000       15.9994           0
   10454 WTD1 6638 TIP3 H1   HT     0.417000        1.0079           0
   10455 WTD1 6638 TIP3 H2   HT     0.417000        1.0079           0
   10456 WTD1 6639 TIP3 OH2  OT    -0.834000       15.9994           0
   10457 WTD1 6639 TIP3 H1   HT     0.417000        1.0079           0
   10458 WTD1 6639 TIP3 H2   HT     0.417000        1.0079           0
   10459 WTD1 6640 TIP3 OH2  OT    -0.834000       15.9994           0
   10460 WTD1 6640 TIP3 H1   HT     0.417000        1.0079           0
   10461 WTD1 6640 TIP3 H2   HT     0.417000        1.0079           0
   10462 WTD1 6641 TIP3 OH2  OT    -0.834000       15.9994           0
   10463 WTD1 6641 TIP3 H1   HT     0.417000        1.0079           0
   10464 WTD1 6641 TIP3 H2   HT     0.417000        1.0079           0
   10465 WTD1 6642 TIP3 OH2  OT    -0.834000       15.9994           0
   10466 WTD1 6642 TIP3 H1   HT     0.417000        1.0079           0
   10467 WTD1 6642 TIP3 H2   HT     0.417000        1.0079           0
   10468 WTD1 6656 TIP3 OH2  OT    -0.834000       15.9994           0
   10469 WTD1 6656 TIP3 H1   HT     0.417000        1.0079           0
   10470 WTD1 6656 TIP3 H2   HT     0.417000        1.0079           0
   10471 WTD1 6659 TIP3 OH2  OT    -0.834000       15.9994           0
   10472 WTD1 6659 TIP3 H1   HT     0.417000        1.0079           0
   10473 WTD1 6659 TIP3 H2   HT     0.417000        1.0079           0
   10474 WTD1 6660 TIP3 OH2  OT    -0.834000       15.9994           0
   10475 WTD1 6660 TIP3 H1   HT     0.417000        1.0079           0
   10476 WTD1 6660 TIP3 H2   HT     0.417000        1.0079           0
   10477 WTD1 6661 TIP3 OH2  OT    -0.834000       15.9994           0
   10478 WTD1 6661 TIP3 H1   HT     0.417000        1.0079           0
   10479 WTD1 6661 TIP3 H2   HT     0.417000        1.0079           0
   10480 WTD1 6679 TIP3 OH2  OT    -0.834000       15.9994           0
   10481 WTD1 6679 TIP3 H1   HT     0.417000        1.0079           0
   10482 WTD1 6679 TIP3 H2   HT     0.417000        1.0079           0
   10483 WTD1 6681 TIP3 OH2  OT    -0.834000       15.9994           0
   10484 WTD1 6681 TIP3 H1   HT     0.417000        1.0079           0
   10485 WTD1 6681 TIP3 H2   HT     0.417000        1.0079           0
   10486 WTD1 6684 TIP3 OH2  OT    -0.834000       15.9994           0
   10487 WTD1 6684 TIP3 H1   HT     0.417000        1.0079           0
   10488 WTD1 6684 TIP3 H2   HT     0.417000        1.0079           0
   10489 WTD1 6698 TIP3 OH2  OT    -0.834000       15.9994           0
   10490 WTD1 6698 TIP3 H1   HT     0.417000        1.0079           0
   10491 WTD1 6698 TIP3 H2   HT     0.417000        1.0079           0
   10492 WTD1 6700 TIP3 OH2  OT    -0.834000       15.9994           0
   10493 WTD1 6700 TIP3 H1   HT     0.417000        1.0079           0
   10494 WTD1 6700 TIP3 H2   HT     0.417000        1.0079           0
   10495 WTD1 6701 TIP3 OH2  OT    -0.834000       15.9994           0
   10496 WTD1 6701 TIP3 H1   HT     0.417000        1.0079           0
   10497 WTD1 6701 TIP3 H2   HT     0.417000        1.0079           0
   10498 WTD1 6703 TIP3 OH2  OT    -0.834000       15.9994           0
   10499 WTD1 6703 TIP3 H1   HT     0.417000        1.0079           0
   10500 WTD1 6703 TIP3 H2   HT     0.417000        1.0079           0
   10501 WTD1 6704 TIP3 OH2  OT    -0.834000       15.9994           0
   10502 WTD1 6704 TIP3 H1   HT     0.417000        1.0079           0
   10503 WTD1 6704 TIP3 H2   HT     0.417000        1.0079           0
   10504 WTD1 6706 TIP3 OH2  OT    -0.834000       15.9994           0
   10505 WTD1 6706 TIP3 H1   HT     0.417000        1.0079           0
   10506 WTD1 6706 TIP3 H2   HT     0.417000        1.0079           0
   10507 WTD1 6721 TIP3 OH2  OT    -0.834000       15.9994           0
   10508 WTD1 6721 TIP3 H1   HT     0.417000        1.0079           0
   10509 WTD1 6721 TIP3 H2   HT     0.417000        1.0079           0
   10510 WTD1 6740 TIP3 OH2  OT    -0.834000       15.9994           0
   10511 WTD1 6740 TIP3 H1   HT     0.417000        1.0079           0
   10512 WTD1 6740 TIP3 H2   HT     0.417000        1.0079           0
   10513 WTD1 6742 TIP3 OH2  OT    -0.834000       15.9994           0
   10514 WTD1 6742 TIP3 H1   HT     0.417000        1.0079           0
   10515 WTD1 6742 TIP3 H2   HT     0.417000        1.0079           0
   10516 WTD1 6743 TIP3 OH2  OT    -0.834000       15.9994           0
   10517 WTD1 6743 TIP3 H1   HT     0.417000        1.0079           0
   10518 WTD1 6743 TIP3 H2   HT     0.417000        1.0079           0
   10519 WTD1 6745 TIP3 OH2  OT    -0.834000       15.9994           0
   10520 WTD1 6745 TIP3 H1   HT     0.417000        1.0079           0
   10521 WTD1 6745 TIP3 H2   HT     0.417000        1.0079           0
   10522 WTD1 6748 TIP3 OH2  OT    -0.834000       15.9994           0
   10523 WTD1 6748 TIP3 H1   HT     0.417000        1.0079           0
   10524 WTD1 6748 TIP3 H2   HT     0.417000        1.0079           0
   10525 WTD1 6762 TIP3 OH2  OT    -0.834000       15.9994           0
   10526 WTD1 6762 TIP3 H1   HT     0.417000        1.0079           0
   10527 WTD1 6762 TIP3 H2   HT     0.417000        1.0079           0
   10528 WTD1 6763 TIP3 OH2  OT    -0.834000       15.9994           0
   10529 WTD1 6763 TIP3 H1   HT     0.417000        1.0079           0
   10530 WTD1 6763 TIP3 H2   HT     0.417000        1.0079           0
   10531 WTD1 6765 TIP3 OH2  OT    -0.834000       15.9994           0
   10532 WTD1 6765 TIP3 H1   HT     0.417000        1.0079           0
   10533 WTD1 6765 TIP3 H2   HT     0.417000        1.0079           0
   10534 WTD1 6768 TIP3 OH2  OT    -0.834000       15.9994           0
   10535 WTD1 6768 TIP3 H1   HT     0.417000        1.0079           0
   10536 WTD1 6768 TIP3 H2   HT     0.417000        1.0079           0
   10537 WTD1 6786 TIP3 OH2  OT    -0.834000       15.9994           0
   10538 WTD1 6786 TIP3 H1   HT     0.417000        1.0079           0
   10539 WTD1 6786 TIP3 H2   HT     0.417000        1.0079           0
   10540 WTD1 6791 TIP3 OH2  OT    -0.834000       15.9994           0
   10541 WTD1 6791 TIP3 H1   HT     0.417000        1.0079           0
   10542 WTD1 6791 TIP3 H2   HT     0.417000        1.0079           0
   10543 WTD1 6803 TIP3 OH2  OT    -0.834000       15.9994           0
   10544 WTD1 6803 TIP3 H1   HT     0.417000        1.0079           0
   10545 WTD1 6803 TIP3 H2   HT     0.417000        1.0079           0
   10546 WTD1 6807 TIP3 OH2  OT    -0.834000       15.9994           0
   10547 WTD1 6807 TIP3 H1   HT     0.417000        1.0079           0
   10548 WTD1 6807 TIP3 H2   HT     0.417000        1.0079           0
   10549 WTD1 6825 TIP3 OH2  OT    -0.834000       15.9994           0
   10550 WTD1 6825 TIP3 H1   HT     0.417000        1.0079           0
   10551 WTD1 6825 TIP3 H2   HT     0.417000        1.0079           0
   10552 WTD1 6826 TIP3 OH2  OT    -0.834000       15.9994           0
   10553 WTD1 6826 TIP3 H1   HT     0.417000        1.0079           0
   10554 WTD1 6826 TIP3 H2   HT     0.417000        1.0079           0
   10555 WTD1 6827 TIP3 OH2  OT    -0.834000       15.9994           0
   10556 WTD1 6827 TIP3 H1   HT     0.417000        1.0079           0
   10557 WTD1 6827 TIP3 H2   HT     0.417000        1.0079           0
   10558 WTD1 6828 TIP3 OH2  OT    -0.834000       15.9994           0
   10559 WTD1 6828 TIP3 H1   HT     0.417000        1.0079           0
   10560 WTD1 6828 TIP3 H2   HT     0.417000        1.0079           0
   10561 WTD1 6834 TIP3 OH2  OT    -0.834000       15.9994           0
   10562 WTD1 6834 TIP3 H1   HT     0.417000        1.0079           0
   10563 WTD1 6834 TIP3 H2   HT     0.417000        1.0079           0
   10564 WTD1 6846 TIP3 OH2  OT    -0.834000       15.9994           0
   10565 WTD1 6846 TIP3 H1   HT     0.417000        1.0079           0
   10566 WTD1 6846 TIP3 H2   HT     0.417000        1.0079           0
   10567 WTD1 6848 TIP3 OH2  OT    -0.834000       15.9994           0
   10568 WTD1 6848 TIP3 H1   HT     0.417000        1.0079           0
   10569 WTD1 6848 TIP3 H2   HT     0.417000        1.0079           0
   10570 WTD1 6849 TIP3 OH2  OT    -0.834000       15.9994           0
   10571 WTD1 6849 TIP3 H1   HT     0.417000        1.0079           0
   10572 WTD1 6849 TIP3 H2   HT     0.417000        1.0079           0
   10573 WTD1 6850 TIP3 OH2  OT    -0.834000       15.9994           0
   10574 WTD1 6850 TIP3 H1   HT     0.417000        1.0079           0
   10575 WTD1 6850 TIP3 H2   HT     0.417000        1.0079           0
   10576 WTD1 6852 TIP3 OH2  OT    -0.834000       15.9994           0
   10577 WTD1 6852 TIP3 H1   HT     0.417000        1.0079           0
   10578 WTD1 6852 TIP3 H2   HT     0.417000        1.0079           0
   10579 WTD1 6853 TIP3 OH2  OT    -0.834000       15.9994           0
   10580 WTD1 6853 TIP3 H1   HT     0.417000        1.0079           0
   10581 WTD1 6853 TIP3 H2   HT     0.417000        1.0079           0
   10582 WTD1 6866 TIP3 OH2  OT    -0.834000       15.9994           0
   10583 WTD1 6866 TIP3 H1   HT     0.417000        1.0079           0
   10584 WTD1 6866 TIP3 H2   HT     0.417000        1.0079           0
   10585 WTD1 6869 TIP3 OH2  OT    -0.834000       15.9994           0
   10586 WTD1 6869 TIP3 H1   HT     0.417000        1.0079           0
   10587 WTD1 6869 TIP3 H2   HT     0.417000        1.0079           0
   10588 WTD1 6870 TIP3 OH2  OT    -0.834000       15.9994           0
   10589 WTD1 6870 TIP3 H1   HT     0.417000        1.0079           0
   10590 WTD1 6870 TIP3 H2   HT     0.417000        1.0079           0
   10591 WTD1 6874 TIP3 OH2  OT    -0.834000       15.9994           0
   10592 WTD1 6874 TIP3 H1   HT     0.417000        1.0079           0
   10593 WTD1 6874 TIP3 H2   HT     0.417000        1.0079           0
   10594 WTD1 6886 TIP3 OH2  OT    -0.834000       15.9994           0
   10595 WTD1 6886 TIP3 H1   HT     0.417000        1.0079           0
   10596 WTD1 6886 TIP3 H2   HT     0.417000        1.0079           0
   10597 WTD1 6887 TIP3 OH2  OT    -0.834000       15.9994           0
   10598 WTD1 6887 TIP3 H1   HT     0.417000        1.0079           0
   10599 WTD1 6887 TIP3 H2   HT     0.417000        1.0079           0
   10600 WTD1 6889 TIP3 OH2  OT    -0.834000       15.9994           0
   10601 WTD1 6889 TIP3 H1   HT     0.417000        1.0079           0
   10602 WTD1 6889 TIP3 H2   HT     0.417000        1.0079           0
   10603 WTD1 6890 TIP3 OH2  OT    -0.834000       15.9994           0
   10604 WTD1 6890 TIP3 H1   HT     0.417000        1.0079           0
   10605 WTD1 6890 TIP3 H2   HT     0.417000        1.0079           0
   10606 WTD1 6893 TIP3 OH2  OT    -0.834000       15.9994           0
   10607 WTD1 6893 TIP3 H1   HT     0.417000        1.0079           0
   10608 WTD1 6893 TIP3 H2   HT     0.417000        1.0079           0
   10609 WTD1 6896 TIP3 OH2  OT    -0.834000       15.9994           0
   10610 WTD1 6896 TIP3 H1   HT     0.417000        1.0079           0
   10611 WTD1 6896 TIP3 H2   HT     0.417000        1.0079           0
   10612 WTD1 6913 TIP3 OH2  OT    -0.834000       15.9994           0
   10613 WTD1 6913 TIP3 H1   HT     0.417000        1.0079           0
   10614 WTD1 6913 TIP3 H2   HT     0.417000        1.0079           0
   10615 WTD1 6914 TIP3 OH2  OT    -0.834000       15.9994           0
   10616 WTD1 6914 TIP3 H1   HT     0.417000        1.0079           0
   10617 WTD1 6914 TIP3 H2   HT     0.417000        1.0079           0
   10618 WTD1 6928 TIP3 OH2  OT    -0.834000       15.9994           0
   10619 WTD1 6928 TIP3 H1   HT     0.417000        1.0079           0
   10620 WTD1 6928 TIP3 H2   HT     0.417000        1.0079           0
   10621 WTD1 6930 TIP3 OH2  OT    -0.834000       15.9994           0
   10622 WTD1 6930 TIP3 H1   HT     0.417000        1.0079           0
   10623 WTD1 6930 TIP3 H2   HT     0.417000        1.0079           0
   10624 WTD1 6931 TIP3 OH2  OT    -0.834000       15.9994           0
   10625 WTD1 6931 TIP3 H1   HT     0.417000        1.0079           0
   10626 WTD1 6931 TIP3 H2   HT     0.417000        1.0079           0
   10627 WTD1 6932 TIP3 OH2  OT    -0.834000       15.9994           0
   10628 WTD1 6932 TIP3 H1   HT     0.417000        1.0079           0
   10629 WTD1 6932 TIP3 H2   HT     0.417000        1.0079           0
   10630 WTD1 6933 TIP3 OH2  OT    -0.834000       15.9994           0
   10631 WTD1 6933 TIP3 H1   HT     0.417000        1.0079           0
   10632 WTD1 6933 TIP3 H2   HT     0.417000        1.0079           0
   10633 WTD1 6935 TIP3 OH2  OT    -0.834000       15.9994           0
   10634 WTD1 6935 TIP3 H1   HT     0.417000        1.0079           0
   10635 WTD1 6935 TIP3 H2   HT     0.417000        1.0079           0
   10636 WTD1 6936 TIP3 OH2  OT    -0.834000       15.9994           0
   10637 WTD1 6936 TIP3 H1   HT     0.417000        1.0079           0
   10638 WTD1 6936 TIP3 H2   HT     0.417000        1.0079           0
   10639 WTD1 6952 TIP3 OH2  OT    -0.834000       15.9994           0
   10640 WTD1 6952 TIP3 H1   HT     0.417000        1.0079           0
   10641 WTD1 6952 TIP3 H2   HT     0.417000        1.0079           0
   10642 WTD1 6953 TIP3 OH2  OT    -0.834000       15.9994           0
   10643 WTD1 6953 TIP3 H1   HT     0.417000        1.0079           0
   10644 WTD1 6953 TIP3 H2   HT     0.417000        1.0079           0
   10645 WTD1 6955 TIP3 OH2  OT    -0.834000       15.9994           0
   10646 WTD1 6955 TIP3 H1   HT     0.417000        1.0079           0
   10647 WTD1 6955 TIP3 H2   HT     0.417000        1.0079           0
   10648 WTD1 6957 TIP3 OH2  OT    -0.834000       15.9994           0
   10649 WTD1 6957 TIP3 H1   HT     0.417000        1.0079           0
   10650 WTD1 6957 TIP3 H2   HT     0.417000        1.0079           0
   10651 WTD1 6970 TIP3 OH2  OT    -0.834000       15.9994           0
   10652 WTD1 6970 TIP3 H1   HT     0.417000        1.0079           0
   10653 WTD1 6970 TIP3 H2   HT     0.417000        1.0079           0
   10654 WTD1 6977 TIP3 OH2  OT    -0.834000       15.9994           0
   10655 WTD1 6977 TIP3 H1   HT     0.417000        1.0079           0
   10656 WTD1 6977 TIP3 H2   HT     0.417000        1.0079           0
   10657 WTD1 6978 TIP3 OH2  OT    -0.834000       15.9994           0
   10658 WTD1 6978 TIP3 H1   HT     0.417000        1.0079           0
   10659 WTD1 6978 TIP3 H2   HT     0.417000        1.0079           0
   10660 WTD1 6995 TIP3 OH2  OT    -0.834000       15.9994           0
   10661 WTD1 6995 TIP3 H1   HT     0.417000        1.0079           0
   10662 WTD1 6995 TIP3 H2   HT     0.417000        1.0079           0
   10663 WTD1 6997 TIP3 OH2  OT    -0.834000       15.9994           0
   10664 WTD1 6997 TIP3 H1   HT     0.417000        1.0079           0
   10665 WTD1 6997 TIP3 H2   HT     0.417000        1.0079           0
   10666 WTD1 6999 TIP3 OH2  OT    -0.834000       15.9994           0
   10667 WTD1 6999 TIP3 H1   HT     0.417000        1.0079           0
   10668 WTD1 6999 TIP3 H2   HT     0.417000        1.0079           0
   10669 WTD1 7011 TIP3 OH2  OT    -0.834000       15.9994           0
   10670 WTD1 7011 TIP3 H1   HT     0.417000        1.0079           0
   10671 WTD1 7011 TIP3 H2   HT     0.417000        1.0079           0
   10672 WTD1 7014 TIP3 OH2  OT    -0.834000       15.9994           0
   10673 WTD1 7014 TIP3 H1   HT     0.417000        1.0079           0
   10674 WTD1 7014 TIP3 H2   HT     0.417000        1.0079           0
   10675 WTD1 7015 TIP3 OH2  OT    -0.834000       15.9994           0
   10676 WTD1 7015 TIP3 H1   HT     0.417000        1.0079           0
   10677 WTD1 7015 TIP3 H2   HT     0.417000        1.0079           0
   10678 WTD1 7017 TIP3 OH2  OT    -0.834000       15.9994           0
   10679 WTD1 7017 TIP3 H1   HT     0.417000        1.0079           0
   10680 WTD1 7017 TIP3 H2   HT     0.417000        1.0079           0
   10681 WTD1 7018 TIP3 OH2  OT    -0.834000       15.9994           0
   10682 WTD1 7018 TIP3 H1   HT     0.417000        1.0079           0
   10683 WTD1 7018 TIP3 H2   HT     0.417000        1.0079           0
   10684 WTD1 7019 TIP3 OH2  OT    -0.834000       15.9994           0
   10685 WTD1 7019 TIP3 H1   HT     0.417000        1.0079           0
   10686 WTD1 7019 TIP3 H2   HT     0.417000        1.0079           0
   10687 WTD1 7038 TIP3 OH2  OT    -0.834000       15.9994           0
   10688 WTD1 7038 TIP3 H1   HT     0.417000        1.0079           0
   10689 WTD1 7038 TIP3 H2   HT     0.417000        1.0079           0
   10690 WTD1 7039 TIP3 OH2  OT    -0.834000       15.9994           0
   10691 WTD1 7039 TIP3 H1   HT     0.417000        1.0079           0
   10692 WTD1 7039 TIP3 H2   HT     0.417000        1.0079           0
   10693 WTD1 7040 TIP3 OH2  OT    -0.834000       15.9994           0
   10694 WTD1 7040 TIP3 H1   HT     0.417000        1.0079           0
   10695 WTD1 7040 TIP3 H2   HT     0.417000        1.0079           0
   10696 WTD1 7042 TIP3 OH2  OT    -0.834000       15.9994           0
   10697 WTD1 7042 TIP3 H1   HT     0.417000        1.0079           0
   10698 WTD1 7042 TIP3 H2   HT     0.417000        1.0079           0
   10699 WTD1 7052 TIP3 OH2  OT    -0.834000       15.9994           0
   10700 WTD1 7052 TIP3 H1   HT     0.417000        1.0079           0
   10701 WTD1 7052 TIP3 H2   HT     0.417000        1.0079           0
   10702 WTD1 7059 TIP3 OH2  OT    -0.834000       15.9994           0
   10703 WTD1 7059 TIP3 H1   HT     0.417000        1.0079           0
   10704 WTD1 7059 TIP3 H2   HT     0.417000        1.0079           0
   10705 WTD1 7061 TIP3 OH2  OT    -0.834000       15.9994           0
   10706 WTD1 7061 TIP3 H1   HT     0.417000        1.0079           0
   10707 WTD1 7061 TIP3 H2   HT     0.417000        1.0079           0
   10708 WTD1 7076 TIP3 OH2  OT    -0.834000       15.9994           0
   10709 WTD1 7076 TIP3 H1   HT     0.417000        1.0079           0
   10710 WTD1 7076 TIP3 H2   HT     0.417000        1.0079           0
   10711 WTD1 7078 TIP3 OH2  OT    -0.834000       15.9994           0
   10712 WTD1 7078 TIP3 H1   HT     0.417000        1.0079           0
   10713 WTD1 7078 TIP3 H2   HT     0.417000        1.0079           0
   10714 WTD1 7081 TIP3 OH2  OT    -0.834000       15.9994           0
   10715 WTD1 7081 TIP3 H1   HT     0.417000        1.0079           0
   10716 WTD1 7081 TIP3 H2   HT     0.417000        1.0079           0
   10717 WTD1 7101 TIP3 OH2  OT    -0.834000       15.9994           0
   10718 WTD1 7101 TIP3 H1   HT     0.417000        1.0079           0
   10719 WTD1 7101 TIP3 H2   HT     0.417000        1.0079           0
   10720 WTD1 7102 TIP3 OH2  OT    -0.834000       15.9994           0
   10721 WTD1 7102 TIP3 H1   HT     0.417000        1.0079           0
   10722 WTD1 7102 TIP3 H2   HT     0.417000        1.0079           0
   10723 WTD1 7107 TIP3 OH2  OT    -0.834000       15.9994           0
   10724 WTD1 7107 TIP3 H1   HT     0.417000        1.0079           0
   10725 WTD1 7107 TIP3 H2   HT     0.417000        1.0079           0
   10726 WTD1 7122 TIP3 OH2  OT    -0.834000       15.9994           0
   10727 WTD1 7122 TIP3 H1   HT     0.417000        1.0079           0
   10728 WTD1 7122 TIP3 H2   HT     0.417000        1.0079           0
   10729 WTD1 7142 TIP3 OH2  OT    -0.834000       15.9994           0
   10730 WTD1 7142 TIP3 H1   HT     0.417000        1.0079           0
   10731 WTD1 7142 TIP3 H2   HT     0.417000        1.0079           0
   10732 WTD1 7143 TIP3 OH2  OT    -0.834000       15.9994           0
   10733 WTD1 7143 TIP3 H1   HT     0.417000        1.0079           0
   10734 WTD1 7143 TIP3 H2   HT     0.417000        1.0079           0
   10735 WTD1 7145 TIP3 OH2  OT    -0.834000       15.9994           0
   10736 WTD1 7145 TIP3 H1   HT     0.417000        1.0079           0
   10737 WTD1 7145 TIP3 H2   HT     0.417000        1.0079           0
   10738 WTD1 7146 TIP3 OH2  OT    -0.834000       15.9994           0
   10739 WTD1 7146 TIP3 H1   HT     0.417000        1.0079           0
   10740 WTD1 7146 TIP3 H2   HT     0.417000        1.0079           0
   10741 WTD1 7147 TIP3 OH2  OT    -0.834000       15.9994           0
   10742 WTD1 7147 TIP3 H1   HT     0.417000        1.0079           0
   10743 WTD1 7147 TIP3 H2   HT     0.417000        1.0079           0
   10744 WTD1 7161 TIP3 OH2  OT    -0.834000       15.9994           0
   10745 WTD1 7161 TIP3 H1   HT     0.417000        1.0079           0
   10746 WTD1 7161 TIP3 H2   HT     0.417000        1.0079           0
   10747 WTD1 7166 TIP3 OH2  OT    -0.834000       15.9994           0
   10748 WTD1 7166 TIP3 H1   HT     0.417000        1.0079           0
   10749 WTD1 7166 TIP3 H2   HT     0.417000        1.0079           0
   10750 WTD1 7179 TIP3 OH2  OT    -0.834000       15.9994           0
   10751 WTD1 7179 TIP3 H1   HT     0.417000        1.0079           0
   10752 WTD1 7179 TIP3 H2   HT     0.417000        1.0079           0
   10753 WTD1 7181 TIP3 OH2  OT    -0.834000       15.9994           0
   10754 WTD1 7181 TIP3 H1   HT     0.417000        1.0079           0
   10755 WTD1 7181 TIP3 H2   HT     0.417000        1.0079           0
   10756 WTD1 7182 TIP3 OH2  OT    -0.834000       15.9994           0
   10757 WTD1 7182 TIP3 H1   HT     0.417000        1.0079           0
   10758 WTD1 7182 TIP3 H2   HT     0.417000        1.0079           0
   10759 WTD1 7183 TIP3 OH2  OT    -0.834000       15.9994           0
   10760 WTD1 7183 TIP3 H1   HT     0.417000        1.0079           0
   10761 WTD1 7183 TIP3 H2   HT     0.417000        1.0079           0
   10762 WTD1 7185 TIP3 OH2  OT    -0.834000       15.9994           0
   10763 WTD1 7185 TIP3 H1   HT     0.417000        1.0079           0
   10764 WTD1 7185 TIP3 H2   HT     0.417000        1.0079           0
   10765 WTD1 7186 TIP3 OH2  OT    -0.834000       15.9994           0
   10766 WTD1 7186 TIP3 H1   HT     0.417000        1.0079           0
   10767 WTD1 7186 TIP3 H2   HT     0.417000        1.0079           0
   10768 WTD1 7188 TIP3 OH2  OT    -0.834000       15.9994           0
   10769 WTD1 7188 TIP3 H1   HT     0.417000        1.0079           0
   10770 WTD1 7188 TIP3 H2   HT     0.417000        1.0079           0
   10771 WTD1 7189 TIP3 OH2  OT    -0.834000       15.9994           0
   10772 WTD1 7189 TIP3 H1   HT     0.417000        1.0079           0
   10773 WTD1 7189 TIP3 H2   HT     0.417000        1.0079           0
   10774 WTD1 7200 TIP3 OH2  OT    -0.834000       15.9994           0
   10775 WTD1 7200 TIP3 H1   HT     0.417000        1.0079           0
   10776 WTD1 7200 TIP3 H2   HT     0.417000        1.0079           0
   10777 WTD1 7203 TIP3 OH2  OT    -0.834000       15.9994           0
   10778 WTD1 7203 TIP3 H1   HT     0.417000        1.0079           0
   10779 WTD1 7203 TIP3 H2   HT     0.417000        1.0079           0
   10780 WTD1 7206 TIP3 OH2  OT    -0.834000       15.9994           0
   10781 WTD1 7206 TIP3 H1   HT     0.417000        1.0079           0
   10782 WTD1 7206 TIP3 H2   HT     0.417000        1.0079           0
   10783 WTD1 7207 TIP3 OH2  OT    -0.834000       15.9994           0
   10784 WTD1 7207 TIP3 H1   HT     0.417000        1.0079           0
   10785 WTD1 7207 TIP3 H2   HT     0.417000        1.0079           0
   10786 WTD1 7209 TIP3 OH2  OT    -0.834000       15.9994           0
   10787 WTD1 7209 TIP3 H1   HT     0.417000        1.0079           0
   10788 WTD1 7209 TIP3 H2   HT     0.417000        1.0079           0
   10789 WTD1 7210 TIP3 OH2  OT    -0.834000       15.9994           0
   10790 WTD1 7210 TIP3 H1   HT     0.417000        1.0079           0
   10791 WTD1 7210 TIP3 H2   HT     0.417000        1.0079           0
   10792 WTD1 7212 TIP3 OH2  OT    -0.834000       15.9994           0
   10793 WTD1 7212 TIP3 H1   HT     0.417000        1.0079           0
   10794 WTD1 7212 TIP3 H2   HT     0.417000        1.0079           0
   10795 WTD1 7213 TIP3 OH2  OT    -0.834000       15.9994           0
   10796 WTD1 7213 TIP3 H1   HT     0.417000        1.0079           0
   10797 WTD1 7213 TIP3 H2   HT     0.417000        1.0079           0
   10798 WTD1 7222 TIP3 OH2  OT    -0.834000       15.9994           0
   10799 WTD1 7222 TIP3 H1   HT     0.417000        1.0079           0
   10800 WTD1 7222 TIP3 H2   HT     0.417000        1.0079           0
   10801 WTD1 7229 TIP3 OH2  OT    -0.834000       15.9994           0
   10802 WTD1 7229 TIP3 H1   HT     0.417000        1.0079           0
   10803 WTD1 7229 TIP3 H2   HT     0.417000        1.0079           0
   10804 WTD1 7230 TIP3 OH2  OT    -0.834000       15.9994           0
   10805 WTD1 7230 TIP3 H1   HT     0.417000        1.0079           0
   10806 WTD1 7230 TIP3 H2   HT     0.417000        1.0079           0
   10807 WTD1 7246 TIP3 OH2  OT    -0.834000       15.9994           0
   10808 WTD1 7246 TIP3 H1   HT     0.417000        1.0079           0
   10809 WTD1 7246 TIP3 H2   HT     0.417000        1.0079           0
   10810 WTD1 7247 TIP3 OH2  OT    -0.834000       15.9994           0
   10811 WTD1 7247 TIP3 H1   HT     0.417000        1.0079           0
   10812 WTD1 7247 TIP3 H2   HT     0.417000        1.0079           0
   10813 WTD1 7248 TIP3 OH2  OT    -0.834000       15.9994           0
   10814 WTD1 7248 TIP3 H1   HT     0.417000        1.0079           0
   10815 WTD1 7248 TIP3 H2   HT     0.417000        1.0079           0
   10816 WTD1 7249 TIP3 OH2  OT    -0.834000       15.9994           0
   10817 WTD1 7249 TIP3 H1   HT     0.417000        1.0079           0
   10818 WTD1 7249 TIP3 H2   HT     0.417000        1.0079           0
   10819 WTD1 7253 TIP3 OH2  OT    -0.834000       15.9994           0
   10820 WTD1 7253 TIP3 H1   HT     0.417000        1.0079           0
   10821 WTD1 7253 TIP3 H2   HT     0.417000        1.0079           0
   10822 WTD1 7264 TIP3 OH2  OT    -0.834000       15.9994           0
   10823 WTD1 7264 TIP3 H1   HT     0.417000        1.0079           0
   10824 WTD1 7264 TIP3 H2   HT     0.417000        1.0079           0
   10825 WTD1 7267 TIP3 OH2  OT    -0.834000       15.9994           0
   10826 WTD1 7267 TIP3 H1   HT     0.417000        1.0079           0
   10827 WTD1 7267 TIP3 H2   HT     0.417000        1.0079           0
   10828 WTD1 7268 TIP3 OH2  OT    -0.834000       15.9994           0
   10829 WTD1 7268 TIP3 H1   HT     0.417000        1.0079           0
   10830 WTD1 7268 TIP3 H2   HT     0.417000        1.0079           0
   10831 WTD1 7269 TIP3 OH2  OT    -0.834000       15.9994           0
   10832 WTD1 7269 TIP3 H1   HT     0.417000        1.0079           0
   10833 WTD1 7269 TIP3 H2   HT     0.417000        1.0079           0
   10834 WTD1 7271 TIP3 OH2  OT    -0.834000       15.9994           0
   10835 WTD1 7271 TIP3 H1   HT     0.417000        1.0079           0
   10836 WTD1 7271 TIP3 H2   HT     0.417000        1.0079           0
   10837 WTD1 7272 TIP3 OH2  OT    -0.834000       15.9994           0
   10838 WTD1 7272 TIP3 H1   HT     0.417000        1.0079           0
   10839 WTD1 7272 TIP3 H2   HT     0.417000        1.0079           0
   10840 WTD1 7287 TIP3 OH2  OT    -0.834000       15.9994           0
   10841 WTD1 7287 TIP3 H1   HT     0.417000        1.0079           0
   10842 WTD1 7287 TIP3 H2   HT     0.417000        1.0079           0
   10843 WTD1 7293 TIP3 OH2  OT    -0.834000       15.9994           0
   10844 WTD1 7293 TIP3 H1   HT     0.417000        1.0079           0
   10845 WTD1 7293 TIP3 H2   HT     0.417000        1.0079           0
   10846 WTD1 7307 TIP3 OH2  OT    -0.834000       15.9994           0
   10847 WTD1 7307 TIP3 H1   HT     0.417000        1.0079           0
   10848 WTD1 7307 TIP3 H2   HT     0.417000        1.0079           0
   10849 WTD1 7310 TIP3 OH2  OT    -0.834000       15.9994           0
   10850 WTD1 7310 TIP3 H1   HT     0.417000        1.0079           0
   10851 WTD1 7310 TIP3 H2   HT     0.417000        1.0079           0
   10852 WTD1 7311 TIP3 OH2  OT    -0.834000       15.9994           0
   10853 WTD1 7311 TIP3 H1   HT     0.417000        1.0079           0
   10854 WTD1 7311 TIP3 H2   HT     0.417000        1.0079           0
   10855 WTD1 7313 TIP3 OH2  OT    -0.834000       15.9994           0
   10856 WTD1 7313 TIP3 H1   HT     0.417000        1.0079           0
   10857 WTD1 7313 TIP3 H2   HT     0.417000        1.0079           0
   10858 WTD1 7314 TIP3 OH2  OT    -0.834000       15.9994           0
   10859 WTD1 7314 TIP3 H1   HT     0.417000        1.0079           0
   10860 WTD1 7314 TIP3 H2   HT     0.417000        1.0079           0
   10861 WTD1 7328 TIP3 OH2  OT    -0.834000       15.9994           0
   10862 WTD1 7328 TIP3 H1   HT     0.417000        1.0079           0
   10863 WTD1 7328 TIP3 H2   HT     0.417000        1.0079           0
   10864 WTD1 7335 TIP3 OH2  OT    -0.834000       15.9994           0
   10865 WTD1 7335 TIP3 H1   HT     0.417000        1.0079           0
   10866 WTD1 7335 TIP3 H2   HT     0.417000        1.0079           0
   10867 WTD1 7351 TIP3 OH2  OT    -0.834000       15.9994           0
   10868 WTD1 7351 TIP3 H1   HT     0.417000        1.0079           0
   10869 WTD1 7351 TIP3 H2   HT     0.417000        1.0079           0
   10870 WTD1 7352 TIP3 OH2  OT    -0.834000       15.9994           0
   10871 WTD1 7352 TIP3 H1   HT     0.417000        1.0079           0
   10872 WTD1 7352 TIP3 H2   HT     0.417000        1.0079           0
   10873 WTD1 7353 TIP3 OH2  OT    -0.834000       15.9994           0
   10874 WTD1 7353 TIP3 H1   HT     0.417000        1.0079           0
   10875 WTD1 7353 TIP3 H2   HT     0.417000        1.0079           0
   10876 WTD1 7354 TIP3 OH2  OT    -0.834000       15.9994           0
   10877 WTD1 7354 TIP3 H1   HT     0.417000        1.0079           0
   10878 WTD1 7354 TIP3 H2   HT     0.417000        1.0079           0
   10879 WTD1 7356 TIP3 OH2  OT    -0.834000       15.9994           0
   10880 WTD1 7356 TIP3 H1   HT     0.417000        1.0079           0
   10881 WTD1 7356 TIP3 H2   HT     0.417000        1.0079           0
   10882 WTD1 7370 TIP3 OH2  OT    -0.834000       15.9994           0
   10883 WTD1 7370 TIP3 H1   HT     0.417000        1.0079           0
   10884 WTD1 7370 TIP3 H2   HT     0.417000        1.0079           0
   10885 WTD1 7371 TIP3 OH2  OT    -0.834000       15.9994           0
   10886 WTD1 7371 TIP3 H1   HT     0.417000        1.0079           0
   10887 WTD1 7371 TIP3 H2   HT     0.417000        1.0079           0
   10888 WTD1 7374 TIP3 OH2  OT    -0.834000       15.9994           0
   10889 WTD1 7374 TIP3 H1   HT     0.417000        1.0079           0
   10890 WTD1 7374 TIP3 H2   HT     0.417000        1.0079           0
   10891 WTD1 7376 TIP3 OH2  OT    -0.834000       15.9994           0
   10892 WTD1 7376 TIP3 H1   HT     0.417000        1.0079           0
   10893 WTD1 7376 TIP3 H2   HT     0.417000        1.0079           0
   10894 WTD1 7378 TIP3 OH2  OT    -0.834000       15.9994           0
   10895 WTD1 7378 TIP3 H1   HT     0.417000        1.0079           0
   10896 WTD1 7378 TIP3 H2   HT     0.417000        1.0079           0
   10897 WTD1 7379 TIP3 OH2  OT    -0.834000       15.9994           0
   10898 WTD1 7379 TIP3 H1   HT     0.417000        1.0079           0
   10899 WTD1 7379 TIP3 H2   HT     0.417000        1.0079           0
   10900 WTD1 7380 TIP3 OH2  OT    -0.834000       15.9994           0
   10901 WTD1 7380 TIP3 H1   HT     0.417000        1.0079           0
   10902 WTD1 7380 TIP3 H2   HT     0.417000        1.0079           0
   10903 WTD1 7381 TIP3 OH2  OT    -0.834000       15.9994           0
   10904 WTD1 7381 TIP3 H1   HT     0.417000        1.0079           0
   10905 WTD1 7381 TIP3 H2   HT     0.417000        1.0079           0
   10906 WTD1 7393 TIP3 OH2  OT    -0.834000       15.9994           0
   10907 WTD1 7393 TIP3 H1   HT     0.417000        1.0079           0
   10908 WTD1 7393 TIP3 H2   HT     0.417000        1.0079           0
   10909 WTD1 7395 TIP3 OH2  OT    -0.834000       15.9994           0
   10910 WTD1 7395 TIP3 H1   HT     0.417000        1.0079           0
   10911 WTD1 7395 TIP3 H2   HT     0.417000        1.0079           0
   10912 WTD1 7397 TIP3 OH2  OT    -0.834000       15.9994           0
   10913 WTD1 7397 TIP3 H1   HT     0.417000        1.0079           0
   10914 WTD1 7397 TIP3 H2   HT     0.417000        1.0079           0
   10915 WTD1 7399 TIP3 OH2  OT    -0.834000       15.9994           0
   10916 WTD1 7399 TIP3 H1   HT     0.417000        1.0079           0
   10917 WTD1 7399 TIP3 H2   HT     0.417000        1.0079           0
   10918 WTD1 7418 TIP3 OH2  OT    -0.834000       15.9994           0
   10919 WTD1 7418 TIP3 H1   HT     0.417000        1.0079           0
   10920 WTD1 7418 TIP3 H2   HT     0.417000        1.0079           0
   10921 WTD1 7434 TIP3 OH2  OT    -0.834000       15.9994           0
   10922 WTD1 7434 TIP3 H1   HT     0.417000        1.0079           0
   10923 WTD1 7434 TIP3 H2   HT     0.417000        1.0079           0
   10924 WTD1 7435 TIP3 OH2  OT    -0.834000       15.9994           0
   10925 WTD1 7435 TIP3 H1   HT     0.417000        1.0079           0
   10926 WTD1 7435 TIP3 H2   HT     0.417000        1.0079           0
   10927 WTD1 7437 TIP3 OH2  OT    -0.834000       15.9994           0
   10928 WTD1 7437 TIP3 H1   HT     0.417000        1.0079           0
   10929 WTD1 7437 TIP3 H2   HT     0.417000        1.0079           0
   10930 WTD1 7439 TIP3 OH2  OT    -0.834000       15.9994           0
   10931 WTD1 7439 TIP3 H1   HT     0.417000        1.0079           0
   10932 WTD1 7439 TIP3 H2   HT     0.417000        1.0079           0
   10933 WTD1 7443 TIP3 OH2  OT    -0.834000       15.9994           0
   10934 WTD1 7443 TIP3 H1   HT     0.417000        1.0079           0
   10935 WTD1 7443 TIP3 H2   HT     0.417000        1.0079           0
   10936 WTD1 7454 TIP3 OH2  OT    -0.834000       15.9994           0
   10937 WTD1 7454 TIP3 H1   HT     0.417000        1.0079           0
   10938 WTD1 7454 TIP3 H2   HT     0.417000        1.0079           0
   10939 WTD1 7455 TIP3 OH2  OT    -0.834000       15.9994           0
   10940 WTD1 7455 TIP3 H1   HT     0.417000        1.0079           0
   10941 WTD1 7455 TIP3 H2   HT     0.417000        1.0079           0
   10942 WTD1 7457 TIP3 OH2  OT    -0.834000       15.9994           0
   10943 WTD1 7457 TIP3 H1   HT     0.417000        1.0079           0
   10944 WTD1 7457 TIP3 H2   HT     0.417000        1.0079           0
   10945 WTD1 7461 TIP3 OH2  OT    -0.834000       15.9994           0
   10946 WTD1 7461 TIP3 H1   HT     0.417000        1.0079           0
   10947 WTD1 7461 TIP3 H2   HT     0.417000        1.0079           0
   10948 WTD1 7463 TIP3 OH2  OT    -0.834000       15.9994           0
   10949 WTD1 7463 TIP3 H1   HT     0.417000        1.0079           0
   10950 WTD1 7463 TIP3 H2   HT     0.417000        1.0079           0
   10951 WTD1 7475 TIP3 OH2  OT    -0.834000       15.9994           0
   10952 WTD1 7475 TIP3 H1   HT     0.417000        1.0079           0
   10953 WTD1 7475 TIP3 H2   HT     0.417000        1.0079           0
   10954 WTD1 7477 TIP3 OH2  OT    -0.834000       15.9994           0
   10955 WTD1 7477 TIP3 H1   HT     0.417000        1.0079           0
   10956 WTD1 7477 TIP3 H2   HT     0.417000        1.0079           0
   10957 WTD1 7479 TIP3 OH2  OT    -0.834000       15.9994           0
   10958 WTD1 7479 TIP3 H1   HT     0.417000        1.0079           0
   10959 WTD1 7479 TIP3 H2   HT     0.417000        1.0079           0
   10960 WTD1 7480 TIP3 OH2  OT    -0.834000       15.9994           0
   10961 WTD1 7480 TIP3 H1   HT     0.417000        1.0079           0
   10962 WTD1 7480 TIP3 H2   HT     0.417000        1.0079           0
   10963 WTD1 7493 TIP3 OH2  OT    -0.834000       15.9994           0
   10964 WTD1 7493 TIP3 H1   HT     0.417000        1.0079           0
   10965 WTD1 7493 TIP3 H2   HT     0.417000        1.0079           0
   10966 WTD1 7496 TIP3 OH2  OT    -0.834000       15.9994           0
   10967 WTD1 7496 TIP3 H1   HT     0.417000        1.0079           0
   10968 WTD1 7496 TIP3 H2   HT     0.417000        1.0079           0
   10969 WTD1 7498 TIP3 OH2  OT    -0.834000       15.9994           0
   10970 WTD1 7498 TIP3 H1   HT     0.417000        1.0079           0
   10971 WTD1 7498 TIP3 H2   HT     0.417000        1.0079           0
   10972 WTD1 7499 TIP3 OH2  OT    -0.834000       15.9994           0
   10973 WTD1 7499 TIP3 H1   HT     0.417000        1.0079           0
   10974 WTD1 7499 TIP3 H2   HT     0.417000        1.0079           0
   10975 WTD1 7500 TIP3 OH2  OT    -0.834000       15.9994           0
   10976 WTD1 7500 TIP3 H1   HT     0.417000        1.0079           0
   10977 WTD1 7500 TIP3 H2   HT     0.417000        1.0079           0
   10978 WTD1 7501 TIP3 OH2  OT    -0.834000       15.9994           0
   10979 WTD1 7501 TIP3 H1   HT     0.417000        1.0079           0
   10980 WTD1 7501 TIP3 H2   HT     0.417000        1.0079           0
   10981 WTD1 7502 TIP3 OH2  OT    -0.834000       15.9994           0
   10982 WTD1 7502 TIP3 H1   HT     0.417000        1.0079           0
   10983 WTD1 7502 TIP3 H2   HT     0.417000        1.0079           0
   10984 WTD1 7503 TIP3 OH2  OT    -0.834000       15.9994           0
   10985 WTD1 7503 TIP3 H1   HT     0.417000        1.0079           0
   10986 WTD1 7503 TIP3 H2   HT     0.417000        1.0079           0
   10987 WTD1 7510 TIP3 OH2  OT    -0.834000       15.9994           0
   10988 WTD1 7510 TIP3 H1   HT     0.417000        1.0079           0
   10989 WTD1 7510 TIP3 H2   HT     0.417000        1.0079           0
   10990 WTD1 7515 TIP3 OH2  OT    -0.834000       15.9994           0
   10991 WTD1 7515 TIP3 H1   HT     0.417000        1.0079           0
   10992 WTD1 7515 TIP3 H2   HT     0.417000        1.0079           0
   10993 WTD1 7518 TIP3 OH2  OT    -0.834000       15.9994           0
   10994 WTD1 7518 TIP3 H1   HT     0.417000        1.0079           0
   10995 WTD1 7518 TIP3 H2   HT     0.417000        1.0079           0
   10996 WTD1 7519 TIP3 OH2  OT    -0.834000       15.9994           0
   10997 WTD1 7519 TIP3 H1   HT     0.417000        1.0079           0
   10998 WTD1 7519 TIP3 H2   HT     0.417000        1.0079           0
   10999 WTD1 7522 TIP3 OH2  OT    -0.834000       15.9994           0
   11000 WTD1 7522 TIP3 H1   HT     0.417000        1.0079           0
   11001 WTD1 7522 TIP3 H2   HT     0.417000        1.0079           0
   11002 WTD1 7523 TIP3 OH2  OT    -0.834000       15.9994           0
   11003 WTD1 7523 TIP3 H1   HT     0.417000        1.0079           0
   11004 WTD1 7523 TIP3 H2   HT     0.417000        1.0079           0
   11005 WTD1 7543 TIP3 OH2  OT    -0.834000       15.9994           0
   11006 WTD1 7543 TIP3 H1   HT     0.417000        1.0079           0
   11007 WTD1 7543 TIP3 H2   HT     0.417000        1.0079           0
   11008 WTD1 7544 TIP3 OH2  OT    -0.834000       15.9994           0
   11009 WTD1 7544 TIP3 H1   HT     0.417000        1.0079           0
   11010 WTD1 7544 TIP3 H2   HT     0.417000        1.0079           0
   11011 WTD1 7559 TIP3 OH2  OT    -0.834000       15.9994           0
   11012 WTD1 7559 TIP3 H1   HT     0.417000        1.0079           0
   11013 WTD1 7559 TIP3 H2   HT     0.417000        1.0079           0
   11014 WTD1 7561 TIP3 OH2  OT    -0.834000       15.9994           0
   11015 WTD1 7561 TIP3 H1   HT     0.417000        1.0079           0
   11016 WTD1 7561 TIP3 H2   HT     0.417000        1.0079           0
   11017 WTD1 7564 TIP3 OH2  OT    -0.834000       15.9994           0
   11018 WTD1 7564 TIP3 H1   HT     0.417000        1.0079           0
   11019 WTD1 7564 TIP3 H2   HT     0.417000        1.0079           0
   11020 WTD1 7565 TIP3 OH2  OT    -0.834000       15.9994           0
   11021 WTD1 7565 TIP3 H1   HT     0.417000        1.0079           0
   11022 WTD1 7565 TIP3 H2   HT     0.417000        1.0079           0
   11023 WTD1 7566 TIP3 OH2  OT    -0.834000       15.9994           0
   11024 WTD1 7566 TIP3 H1   HT     0.417000        1.0079           0
   11025 WTD1 7566 TIP3 H2   HT     0.417000        1.0079           0
   11026 WTD1 7582 TIP3 OH2  OT    -0.834000       15.9994           0
   11027 WTD1 7582 TIP3 H1   HT     0.417000        1.0079           0
   11028 WTD1 7582 TIP3 H2   HT     0.417000        1.0079           0
   11029 WTD1 7584 TIP3 OH2  OT    -0.834000       15.9994           0
   11030 WTD1 7584 TIP3 H1   HT     0.417000        1.0079           0
   11031 WTD1 7584 TIP3 H2   HT     0.417000        1.0079           0
   11032 WTD1 7586 TIP3 OH2  OT    -0.834000       15.9994           0
   11033 WTD1 7586 TIP3 H1   HT     0.417000        1.0079           0
   11034 WTD1 7586 TIP3 H2   HT     0.417000        1.0079           0
   11035 WTD1 7602 TIP3 OH2  OT    -0.834000       15.9994           0
   11036 WTD1 7602 TIP3 H1   HT     0.417000        1.0079           0
   11037 WTD1 7602 TIP3 H2   HT     0.417000        1.0079           0
   11038 WTD1 7603 TIP3 OH2  OT    -0.834000       15.9994           0
   11039 WTD1 7603 TIP3 H1   HT     0.417000        1.0079           0
   11040 WTD1 7603 TIP3 H2   HT     0.417000        1.0079           0
   11041 WTD1 7605 TIP3 OH2  OT    -0.834000       15.9994           0
   11042 WTD1 7605 TIP3 H1   HT     0.417000        1.0079           0
   11043 WTD1 7605 TIP3 H2   HT     0.417000        1.0079           0
   11044 WTD1 7625 TIP3 OH2  OT    -0.834000       15.9994           0
   11045 WTD1 7625 TIP3 H1   HT     0.417000        1.0079           0
   11046 WTD1 7625 TIP3 H2   HT     0.417000        1.0079           0
   11047 WTD1 7626 TIP3 OH2  OT    -0.834000       15.9994           0
   11048 WTD1 7626 TIP3 H1   HT     0.417000        1.0079           0
   11049 WTD1 7626 TIP3 H2   HT     0.417000        1.0079           0
   11050 WTD1 7630 TIP3 OH2  OT    -0.834000       15.9994           0
   11051 WTD1 7630 TIP3 H1   HT     0.417000        1.0079           0
   11052 WTD1 7630 TIP3 H2   HT     0.417000        1.0079           0
   11053 WTD1 7643 TIP3 OH2  OT    -0.834000       15.9994           0
   11054 WTD1 7643 TIP3 H1   HT     0.417000        1.0079           0
   11055 WTD1 7643 TIP3 H2   HT     0.417000        1.0079           0
   11056 WTD1 7644 TIP3 OH2  OT    -0.834000       15.9994           0
   11057 WTD1 7644 TIP3 H1   HT     0.417000        1.0079           0
   11058 WTD1 7644 TIP3 H2   HT     0.417000        1.0079           0
   11059 WTD1 7645 TIP3 OH2  OT    -0.834000       15.9994           0
   11060 WTD1 7645 TIP3 H1   HT     0.417000        1.0079           0
   11061 WTD1 7645 TIP3 H2   HT     0.417000        1.0079           0
   11062 WTD1 7646 TIP3 OH2  OT    -0.834000       15.9994           0
   11063 WTD1 7646 TIP3 H1   HT     0.417000        1.0079           0
   11064 WTD1 7646 TIP3 H2   HT     0.417000        1.0079           0
   11065 WTD1 7647 TIP3 OH2  OT    -0.834000       15.9994           0
   11066 WTD1 7647 TIP3 H1   HT     0.417000        1.0079           0
   11067 WTD1 7647 TIP3 H2   HT     0.417000        1.0079           0
   11068 WTD1 7650 TIP3 OH2  OT    -0.834000       15.9994           0
   11069 WTD1 7650 TIP3 H1   HT     0.417000        1.0079           0
   11070 WTD1 7650 TIP3 H2   HT     0.417000        1.0079           0
   11071 WTD1 7663 TIP3 OH2  OT    -0.834000       15.9994           0
   11072 WTD1 7663 TIP3 H1   HT     0.417000        1.0079           0
   11073 WTD1 7663 TIP3 H2   HT     0.417000        1.0079           0
   11074 WTD1 7669 TIP3 OH2  OT    -0.834000       15.9994           0
   11075 WTD1 7669 TIP3 H1   HT     0.417000        1.0079           0
   11076 WTD1 7669 TIP3 H2   HT     0.417000        1.0079           0
   11077 WTD1 7670 TIP3 OH2  OT    -0.834000       15.9994           0
   11078 WTD1 7670 TIP3 H1   HT     0.417000        1.0079           0
   11079 WTD1 7670 TIP3 H2   HT     0.417000        1.0079           0
   11080 WTD1 7673 TIP3 OH2  OT    -0.834000       15.9994           0
   11081 WTD1 7673 TIP3 H1   HT     0.417000        1.0079           0
   11082 WTD1 7673 TIP3 H2   HT     0.417000        1.0079           0
   11083 WTD1 7686 TIP3 OH2  OT    -0.834000       15.9994           0
   11084 WTD1 7686 TIP3 H1   HT     0.417000        1.0079           0
   11085 WTD1 7686 TIP3 H2   HT     0.417000        1.0079           0
   11086 WTD1 7688 TIP3 OH2  OT    -0.834000       15.9994           0
   11087 WTD1 7688 TIP3 H1   HT     0.417000        1.0079           0
   11088 WTD1 7688 TIP3 H2   HT     0.417000        1.0079           0
   11089 WTD1 7689 TIP3 OH2  OT    -0.834000       15.9994           0
   11090 WTD1 7689 TIP3 H1   HT     0.417000        1.0079           0
   11091 WTD1 7689 TIP3 H2   HT     0.417000        1.0079           0
   11092 WTD1 7690 TIP3 OH2  OT    -0.834000       15.9994           0
   11093 WTD1 7690 TIP3 H1   HT     0.417000        1.0079           0
   11094 WTD1 7690 TIP3 H2   HT     0.417000        1.0079           0
   11095 WTD1 7705 TIP3 OH2  OT    -0.834000       15.9994           0
   11096 WTD1 7705 TIP3 H1   HT     0.417000        1.0079           0
   11097 WTD1 7705 TIP3 H2   HT     0.417000        1.0079           0
   11098 WTD1 7707 TIP3 OH2  OT    -0.834000       15.9994           0
   11099 WTD1 7707 TIP3 H1   HT     0.417000        1.0079           0
   11100 WTD1 7707 TIP3 H2   HT     0.417000        1.0079           0
   11101 WTD1 7708 TIP3 OH2  OT    -0.834000       15.9994           0
   11102 WTD1 7708 TIP3 H1   HT     0.417000        1.0079           0
   11103 WTD1 7708 TIP3 H2   HT     0.417000        1.0079           0
   11104 WTD1 7711 TIP3 OH2  OT    -0.834000       15.9994           0
   11105 WTD1 7711 TIP3 H1   HT     0.417000        1.0079           0
   11106 WTD1 7711 TIP3 H2   HT     0.417000        1.0079           0
   11107 WTD1 7716 TIP3 OH2  OT    -0.834000       15.9994           0
   11108 WTD1 7716 TIP3 H1   HT     0.417000        1.0079           0
   11109 WTD1 7716 TIP3 H2   HT     0.417000        1.0079           0
   11110 WTD1 7718 TIP3 OH2  OT    -0.834000       15.9994           0
   11111 WTD1 7718 TIP3 H1   HT     0.417000        1.0079           0
   11112 WTD1 7718 TIP3 H2   HT     0.417000        1.0079           0
   11113 WTD1 7732 TIP3 OH2  OT    -0.834000       15.9994           0
   11114 WTD1 7732 TIP3 H1   HT     0.417000        1.0079           0
   11115 WTD1 7732 TIP3 H2   HT     0.417000        1.0079           0
   11116 WTD1 7748 TIP3 OH2  OT    -0.834000       15.9994           0
   11117 WTD1 7748 TIP3 H1   HT     0.417000        1.0079           0
   11118 WTD1 7748 TIP3 H2   HT     0.417000        1.0079           0
   11119 WTD1 7750 TIP3 OH2  OT    -0.834000       15.9994           0
   11120 WTD1 7750 TIP3 H1   HT     0.417000        1.0079           0
   11121 WTD1 7750 TIP3 H2   HT     0.417000        1.0079           0
   11122 WTD1 7751 TIP3 OH2  OT    -0.834000       15.9994           0
   11123 WTD1 7751 TIP3 H1   HT     0.417000        1.0079           0
   11124 WTD1 7751 TIP3 H2   HT     0.417000        1.0079           0
   11125 WTD1 7752 TIP3 OH2  OT    -0.834000       15.9994           0
   11126 WTD1 7752 TIP3 H1   HT     0.417000        1.0079           0
   11127 WTD1 7752 TIP3 H2   HT     0.417000        1.0079           0
   11128 WTD1 7753 TIP3 OH2  OT    -0.834000       15.9994           0
   11129 WTD1 7753 TIP3 H1   HT     0.417000        1.0079           0
   11130 WTD1 7753 TIP3 H2   HT     0.417000        1.0079           0
   11131 WTD1 7754 TIP3 OH2  OT    -0.834000       15.9994           0
   11132 WTD1 7754 TIP3 H1   HT     0.417000        1.0079           0
   11133 WTD1 7754 TIP3 H2   HT     0.417000        1.0079           0
   11134 WTD1 7755 TIP3 OH2  OT    -0.834000       15.9994           0
   11135 WTD1 7755 TIP3 H1   HT     0.417000        1.0079           0
   11136 WTD1 7755 TIP3 H2   HT     0.417000        1.0079           0
   11137 WTD1 7771 TIP3 OH2  OT    -0.834000       15.9994           0
   11138 WTD1 7771 TIP3 H1   HT     0.417000        1.0079           0
   11139 WTD1 7771 TIP3 H2   HT     0.417000        1.0079           0
   11140 WTD1 7772 TIP3 OH2  OT    -0.834000       15.9994           0
   11141 WTD1 7772 TIP3 H1   HT     0.417000        1.0079           0
   11142 WTD1 7772 TIP3 H2   HT     0.417000        1.0079           0
   11143 WTD1 7773 TIP3 OH2  OT    -0.834000       15.9994           0
   11144 WTD1 7773 TIP3 H1   HT     0.417000        1.0079           0
   11145 WTD1 7773 TIP3 H2   HT     0.417000        1.0079           0
   11146 WTD1 7774 TIP3 OH2  OT    -0.834000       15.9994           0
   11147 WTD1 7774 TIP3 H1   HT     0.417000        1.0079           0
   11148 WTD1 7774 TIP3 H2   HT     0.417000        1.0079           0
   11149 WTD1 7776 TIP3 OH2  OT    -0.834000       15.9994           0
   11150 WTD1 7776 TIP3 H1   HT     0.417000        1.0079           0
   11151 WTD1 7776 TIP3 H2   HT     0.417000        1.0079           0
   11152 WTD1 7791 TIP3 OH2  OT    -0.834000       15.9994           0
   11153 WTD1 7791 TIP3 H1   HT     0.417000        1.0079           0
   11154 WTD1 7791 TIP3 H2   HT     0.417000        1.0079           0
   11155 WTD1 7793 TIP3 OH2  OT    -0.834000       15.9994           0
   11156 WTD1 7793 TIP3 H1   HT     0.417000        1.0079           0
   11157 WTD1 7793 TIP3 H2   HT     0.417000        1.0079           0
   11158 WTD1 7796 TIP3 OH2  OT    -0.834000       15.9994           0
   11159 WTD1 7796 TIP3 H1   HT     0.417000        1.0079           0
   11160 WTD1 7796 TIP3 H2   HT     0.417000        1.0079           0
   11161 WTD1 7797 TIP3 OH2  OT    -0.834000       15.9994           0
   11162 WTD1 7797 TIP3 H1   HT     0.417000        1.0079           0
   11163 WTD1 7797 TIP3 H2   HT     0.417000        1.0079           0
   11164 WTD1 7811 TIP3 OH2  OT    -0.834000       15.9994           0
   11165 WTD1 7811 TIP3 H1   HT     0.417000        1.0079           0
   11166 WTD1 7811 TIP3 H2   HT     0.417000        1.0079           0
   11167 WTD1 7813 TIP3 OH2  OT    -0.834000       15.9994           0
   11168 WTD1 7813 TIP3 H1   HT     0.417000        1.0079           0
   11169 WTD1 7813 TIP3 H2   HT     0.417000        1.0079           0
   11170 WTD1 7815 TIP3 OH2  OT    -0.834000       15.9994           0
   11171 WTD1 7815 TIP3 H1   HT     0.417000        1.0079           0
   11172 WTD1 7815 TIP3 H2   HT     0.417000        1.0079           0
   11173 WTD1 7817 TIP3 OH2  OT    -0.834000       15.9994           0
   11174 WTD1 7817 TIP3 H1   HT     0.417000        1.0079           0
   11175 WTD1 7817 TIP3 H2   HT     0.417000        1.0079           0
   11176 WTD1 7818 TIP3 OH2  OT    -0.834000       15.9994           0
   11177 WTD1 7818 TIP3 H1   HT     0.417000        1.0079           0
   11178 WTD1 7818 TIP3 H2   HT     0.417000        1.0079           0
   11179 WTD1 7832 TIP3 OH2  OT    -0.834000       15.9994           0
   11180 WTD1 7832 TIP3 H1   HT     0.417000        1.0079           0
   11181 WTD1 7832 TIP3 H2   HT     0.417000        1.0079           0
   11182 WTD1 7833 TIP3 OH2  OT    -0.834000       15.9994           0
   11183 WTD1 7833 TIP3 H1   HT     0.417000        1.0079           0
   11184 WTD1 7833 TIP3 H2   HT     0.417000        1.0079           0
   11185 WTD1 7835 TIP3 OH2  OT    -0.834000       15.9994           0
   11186 WTD1 7835 TIP3 H1   HT     0.417000        1.0079           0
   11187 WTD1 7835 TIP3 H2   HT     0.417000        1.0079           0
   11188 WTD1 7839 TIP3 OH2  OT    -0.834000       15.9994           0
   11189 WTD1 7839 TIP3 H1   HT     0.417000        1.0079           0
   11190 WTD1 7839 TIP3 H2   HT     0.417000        1.0079           0
   11191 WTD1 7840 TIP3 OH2  OT    -0.834000       15.9994           0
   11192 WTD1 7840 TIP3 H1   HT     0.417000        1.0079           0
   11193 WTD1 7840 TIP3 H2   HT     0.417000        1.0079           0
   11194 WTD1 7853 TIP3 OH2  OT    -0.834000       15.9994           0
   11195 WTD1 7853 TIP3 H1   HT     0.417000        1.0079           0
   11196 WTD1 7853 TIP3 H2   HT     0.417000        1.0079           0
   11197 WTD1 7854 TIP3 OH2  OT    -0.834000       15.9994           0
   11198 WTD1 7854 TIP3 H1   HT     0.417000        1.0079           0
   11199 WTD1 7854 TIP3 H2   HT     0.417000        1.0079           0
   11200 WTD1 7856 TIP3 OH2  OT    -0.834000       15.9994           0
   11201 WTD1 7856 TIP3 H1   HT     0.417000        1.0079           0
   11202 WTD1 7856 TIP3 H2   HT     0.417000        1.0079           0
   11203 WTD1 7858 TIP3 OH2  OT    -0.834000       15.9994           0
   11204 WTD1 7858 TIP3 H1   HT     0.417000        1.0079           0
   11205 WTD1 7858 TIP3 H2   HT     0.417000        1.0079           0
   11206 WTD1 7859 TIP3 OH2  OT    -0.834000       15.9994           0
   11207 WTD1 7859 TIP3 H1   HT     0.417000        1.0079           0
   11208 WTD1 7859 TIP3 H2   HT     0.417000        1.0079           0
   11209 WTD1 7872 TIP3 OH2  OT    -0.834000       15.9994           0
   11210 WTD1 7872 TIP3 H1   HT     0.417000        1.0079           0
   11211 WTD1 7872 TIP3 H2   HT     0.417000        1.0079           0
   11212 WTD1 7875 TIP3 OH2  OT    -0.834000       15.9994           0
   11213 WTD1 7875 TIP3 H1   HT     0.417000        1.0079           0
   11214 WTD1 7875 TIP3 H2   HT     0.417000        1.0079           0
   11215 WTD1 7878 TIP3 OH2  OT    -0.834000       15.9994           0
   11216 WTD1 7878 TIP3 H1   HT     0.417000        1.0079           0
   11217 WTD1 7878 TIP3 H2   HT     0.417000        1.0079           0
   11218 WTD1 7880 TIP3 OH2  OT    -0.834000       15.9994           0
   11219 WTD1 7880 TIP3 H1   HT     0.417000        1.0079           0
   11220 WTD1 7880 TIP3 H2   HT     0.417000        1.0079           0
   11221 WTD1 7882 TIP3 OH2  OT    -0.834000       15.9994           0
   11222 WTD1 7882 TIP3 H1   HT     0.417000        1.0079           0
   11223 WTD1 7882 TIP3 H2   HT     0.417000        1.0079           0
   11224 WTD1 7895 TIP3 OH2  OT    -0.834000       15.9994           0
   11225 WTD1 7895 TIP3 H1   HT     0.417000        1.0079           0
   11226 WTD1 7895 TIP3 H2   HT     0.417000        1.0079           0
   11227 WTD1 7900 TIP3 OH2  OT    -0.834000       15.9994           0
   11228 WTD1 7900 TIP3 H1   HT     0.417000        1.0079           0
   11229 WTD1 7900 TIP3 H2   HT     0.417000        1.0079           0
   11230 WTD1 7905 TIP3 OH2  OT    -0.834000       15.9994           0
   11231 WTD1 7905 TIP3 H1   HT     0.417000        1.0079           0
   11232 WTD1 7905 TIP3 H2   HT     0.417000        1.0079           0
   11233 WTD1 7919 TIP3 OH2  OT    -0.834000       15.9994           0
   11234 WTD1 7919 TIP3 H1   HT     0.417000        1.0079           0
   11235 WTD1 7919 TIP3 H2   HT     0.417000        1.0079           0
   11236 WTD1 7920 TIP3 OH2  OT    -0.834000       15.9994           0
   11237 WTD1 7920 TIP3 H1   HT     0.417000        1.0079           0
   11238 WTD1 7920 TIP3 H2   HT     0.417000        1.0079           0
   11239 WTD1 7933 TIP3 OH2  OT    -0.834000       15.9994           0
   11240 WTD1 7933 TIP3 H1   HT     0.417000        1.0079           0
   11241 WTD1 7933 TIP3 H2   HT     0.417000        1.0079           0
   11242 WTD1 7938 TIP3 OH2  OT    -0.834000       15.9994           0
   11243 WTD1 7938 TIP3 H1   HT     0.417000        1.0079           0
   11244 WTD1 7938 TIP3 H2   HT     0.417000        1.0079           0
   11245 WTD1 7939 TIP3 OH2  OT    -0.834000       15.9994           0
   11246 WTD1 7939 TIP3 H1   HT     0.417000        1.0079           0
   11247 WTD1 7939 TIP3 H2   HT     0.417000        1.0079           0
   11248 WTD1 7940 TIP3 OH2  OT    -0.834000       15.9994           0
   11249 WTD1 7940 TIP3 H1   HT     0.417000        1.0079           0
   11250 WTD1 7940 TIP3 H2   HT     0.417000        1.0079           0
   11251 WTD1 7941 TIP3 OH2  OT    -0.834000       15.9994           0
   11252 WTD1 7941 TIP3 H1   HT     0.417000        1.0079           0
   11253 WTD1 7941 TIP3 H2   HT     0.417000        1.0079           0
   11254 WTD1 7959 TIP3 OH2  OT    -0.834000       15.9994           0
   11255 WTD1 7959 TIP3 H1   HT     0.417000        1.0079           0
   11256 WTD1 7959 TIP3 H2   HT     0.417000        1.0079           0
   11257 WTD1 7965 TIP3 OH2  OT    -0.834000       15.9994           0
   11258 WTD1 7965 TIP3 H1   HT     0.417000        1.0079           0
   11259 WTD1 7965 TIP3 H2   HT     0.417000        1.0079           0
   11260 WTD1 7967 TIP3 OH2  OT    -0.834000       15.9994           0
   11261 WTD1 7967 TIP3 H1   HT     0.417000        1.0079           0
   11262 WTD1 7967 TIP3 H2   HT     0.417000        1.0079           0
   11263 WTD1 7979 TIP3 OH2  OT    -0.834000       15.9994           0
   11264 WTD1 7979 TIP3 H1   HT     0.417000        1.0079           0
   11265 WTD1 7979 TIP3 H2   HT     0.417000        1.0079           0
   11266 WTD1 7981 TIP3 OH2  OT    -0.834000       15.9994           0
   11267 WTD1 7981 TIP3 H1   HT     0.417000        1.0079           0
   11268 WTD1 7981 TIP3 H2   HT     0.417000        1.0079           0
   11269 WTD1 7984 TIP3 OH2  OT    -0.834000       15.9994           0
   11270 WTD1 7984 TIP3 H1   HT     0.417000        1.0079           0
   11271 WTD1 7984 TIP3 H2   HT     0.417000        1.0079           0
   11272 WTD1 7985 TIP3 OH2  OT    -0.834000       15.9994           0
   11273 WTD1 7985 TIP3 H1   HT     0.417000        1.0079           0
   11274 WTD1 7985 TIP3 H2   HT     0.417000        1.0079           0
   11275 WTD1 8003 TIP3 OH2  OT    -0.834000       15.9994           0
   11276 WTD1 8003 TIP3 H1   HT     0.417000        1.0079           0
   11277 WTD1 8003 TIP3 H2   HT     0.417000        1.0079           0
   11278 WTD1 8004 TIP3 OH2  OT    -0.834000       15.9994           0
   11279 WTD1 8004 TIP3 H1   HT     0.417000        1.0079           0
   11280 WTD1 8004 TIP3 H2   HT     0.417000        1.0079           0
   11281 WTD1 8007 TIP3 OH2  OT    -0.834000       15.9994           0
   11282 WTD1 8007 TIP3 H1   HT     0.417000        1.0079           0
   11283 WTD1 8007 TIP3 H2   HT     0.417000        1.0079           0
   11284 WTD1 8020 TIP3 OH2  OT    -0.834000       15.9994           0
   11285 WTD1 8020 TIP3 H1   HT     0.417000        1.0079           0
   11286 WTD1 8020 TIP3 H2   HT     0.417000        1.0079           0
   11287 WTD1 8022 TIP3 OH2  OT    -0.834000       15.9994           0
   11288 WTD1 8022 TIP3 H1   HT     0.417000        1.0079           0
   11289 WTD1 8022 TIP3 H2   HT     0.417000        1.0079           0
   11290 WTD1 8023 TIP3 OH2  OT    -0.834000       15.9994           0
   11291 WTD1 8023 TIP3 H1   HT     0.417000        1.0079           0
   11292 WTD1 8023 TIP3 H2   HT     0.417000        1.0079           0
   11293 WTD1 8024 TIP3 OH2  OT    -0.834000       15.9994           0
   11294 WTD1 8024 TIP3 H1   HT     0.417000        1.0079           0
   11295 WTD1 8024 TIP3 H2   HT     0.417000        1.0079           0
   11296 WTD1 8027 TIP3 OH2  OT    -0.834000       15.9994           0
   11297 WTD1 8027 TIP3 H1   HT     0.417000        1.0079           0
   11298 WTD1 8027 TIP3 H2   HT     0.417000        1.0079           0
   11299 WTD1 8030 TIP3 OH2  OT    -0.834000       15.9994           0
   11300 WTD1 8030 TIP3 H1   HT     0.417000        1.0079           0
   11301 WTD1 8030 TIP3 H2   HT     0.417000        1.0079           0
   11302 WTD1 8040 TIP3 OH2  OT    -0.834000       15.9994           0
   11303 WTD1 8040 TIP3 H1   HT     0.417000        1.0079           0
   11304 WTD1 8040 TIP3 H2   HT     0.417000        1.0079           0
   11305 WTD1 8041 TIP3 OH2  OT    -0.834000       15.9994           0
   11306 WTD1 8041 TIP3 H1   HT     0.417000        1.0079           0
   11307 WTD1 8041 TIP3 H2   HT     0.417000        1.0079           0
   11308 WTD1 8045 TIP3 OH2  OT    -0.834000       15.9994           0
   11309 WTD1 8045 TIP3 H1   HT     0.417000        1.0079           0
   11310 WTD1 8045 TIP3 H2   HT     0.417000        1.0079           0
   11311 WTD1 8046 TIP3 OH2  OT    -0.834000       15.9994           0
   11312 WTD1 8046 TIP3 H1   HT     0.417000        1.0079           0
   11313 WTD1 8046 TIP3 H2   HT     0.417000        1.0079           0
   11314 WTD1 8047 TIP3 OH2  OT    -0.834000       15.9994           0
   11315 WTD1 8047 TIP3 H1   HT     0.417000        1.0079           0
   11316 WTD1 8047 TIP3 H2   HT     0.417000        1.0079           0
   11317 WTD1 8050 TIP3 OH2  OT    -0.834000       15.9994           0
   11318 WTD1 8050 TIP3 H1   HT     0.417000        1.0079           0
   11319 WTD1 8050 TIP3 H2   HT     0.417000        1.0079           0
   11320 WTD1 8063 TIP3 OH2  OT    -0.834000       15.9994           0
   11321 WTD1 8063 TIP3 H1   HT     0.417000        1.0079           0
   11322 WTD1 8063 TIP3 H2   HT     0.417000        1.0079           0
   11323 WTD1 8064 TIP3 OH2  OT    -0.834000       15.9994           0
   11324 WTD1 8064 TIP3 H1   HT     0.417000        1.0079           0
   11325 WTD1 8064 TIP3 H2   HT     0.417000        1.0079           0
   11326 WTD1 8068 TIP3 OH2  OT    -0.834000       15.9994           0
   11327 WTD1 8068 TIP3 H1   HT     0.417000        1.0079           0
   11328 WTD1 8068 TIP3 H2   HT     0.417000        1.0079           0
   11329 WTD1 8069 TIP3 OH2  OT    -0.834000       15.9994           0
   11330 WTD1 8069 TIP3 H1   HT     0.417000        1.0079           0
   11331 WTD1 8069 TIP3 H2   HT     0.417000        1.0079           0
   11332 WTD1 8070 TIP3 OH2  OT    -0.834000       15.9994           0
   11333 WTD1 8070 TIP3 H1   HT     0.417000        1.0079           0
   11334 WTD1 8070 TIP3 H2   HT     0.417000        1.0079           0
   11335 WTD1 8084 TIP3 OH2  OT    -0.834000       15.9994           0
   11336 WTD1 8084 TIP3 H1   HT     0.417000        1.0079           0
   11337 WTD1 8084 TIP3 H2   HT     0.417000        1.0079           0
   11338 WTD1 8085 TIP3 OH2  OT    -0.834000       15.9994           0
   11339 WTD1 8085 TIP3 H1   HT     0.417000        1.0079           0
   11340 WTD1 8085 TIP3 H2   HT     0.417000        1.0079           0
   11341 WTD1 8087 TIP3 OH2  OT    -0.834000       15.9994           0
   11342 WTD1 8087 TIP3 H1   HT     0.417000        1.0079           0
   11343 WTD1 8087 TIP3 H2   HT     0.417000        1.0079           0
   11344 WTD1 8088 TIP3 OH2  OT    -0.834000       15.9994           0
   11345 WTD1 8088 TIP3 H1   HT     0.417000        1.0079           0
   11346 WTD1 8088 TIP3 H2   HT     0.417000        1.0079           0
   11347 WTD1 8092 TIP3 OH2  OT    -0.834000       15.9994           0
   11348 WTD1 8092 TIP3 H1   HT     0.417000        1.0079           0
   11349 WTD1 8092 TIP3 H2   HT     0.417000        1.0079           0
   11350 WTD1 8104 TIP3 OH2  OT    -0.834000       15.9994           0
   11351 WTD1 8104 TIP3 H1   HT     0.417000        1.0079           0
   11352 WTD1 8104 TIP3 H2   HT     0.417000        1.0079           0
   11353 WTD1 8106 TIP3 OH2  OT    -0.834000       15.9994           0
   11354 WTD1 8106 TIP3 H1   HT     0.417000        1.0079           0
   11355 WTD1 8106 TIP3 H2   HT     0.417000        1.0079           0
   11356 WTD1 8107 TIP3 OH2  OT    -0.834000       15.9994           0
   11357 WTD1 8107 TIP3 H1   HT     0.417000        1.0079           0
   11358 WTD1 8107 TIP3 H2   HT     0.417000        1.0079           0
   11359 WTD1 8109 TIP3 OH2  OT    -0.834000       15.9994           0
   11360 WTD1 8109 TIP3 H1   HT     0.417000        1.0079           0
   11361 WTD1 8109 TIP3 H2   HT     0.417000        1.0079           0
   11362 WTD1 8110 TIP3 OH2  OT    -0.834000       15.9994           0
   11363 WTD1 8110 TIP3 H1   HT     0.417000        1.0079           0
   11364 WTD1 8110 TIP3 H2   HT     0.417000        1.0079           0
   11365 WTD1 8111 TIP3 OH2  OT    -0.834000       15.9994           0
   11366 WTD1 8111 TIP3 H1   HT     0.417000        1.0079           0
   11367 WTD1 8111 TIP3 H2   HT     0.417000        1.0079           0
   11368 WTD1 8112 TIP3 OH2  OT    -0.834000       15.9994           0
   11369 WTD1 8112 TIP3 H1   HT     0.417000        1.0079           0
   11370 WTD1 8112 TIP3 H2   HT     0.417000        1.0079           0
   11371 WTD1 8113 TIP3 OH2  OT    -0.834000       15.9994           0
   11372 WTD1 8113 TIP3 H1   HT     0.417000        1.0079           0
   11373 WTD1 8113 TIP3 H2   HT     0.417000        1.0079           0
   11374 WTD1 8126 TIP3 OH2  OT    -0.834000       15.9994           0
   11375 WTD1 8126 TIP3 H1   HT     0.417000        1.0079           0
   11376 WTD1 8126 TIP3 H2   HT     0.417000        1.0079           0
   11377 WTD1 8129 TIP3 OH2  OT    -0.834000       15.9994           0
   11378 WTD1 8129 TIP3 H1   HT     0.417000        1.0079           0
   11379 WTD1 8129 TIP3 H2   HT     0.417000        1.0079           0
   11380 WTD1 8131 TIP3 OH2  OT    -0.834000       15.9994           0
   11381 WTD1 8131 TIP3 H1   HT     0.417000        1.0079           0
   11382 WTD1 8131 TIP3 H2   HT     0.417000        1.0079           0
   11383 WTD1 8136 TIP3 OH2  OT    -0.834000       15.9994           0
   11384 WTD1 8136 TIP3 H1   HT     0.417000        1.0079           0
   11385 WTD1 8136 TIP3 H2   HT     0.417000        1.0079           0
   11386 WTD1 8150 TIP3 OH2  OT    -0.834000       15.9994           0
   11387 WTD1 8150 TIP3 H1   HT     0.417000        1.0079           0
   11388 WTD1 8150 TIP3 H2   HT     0.417000        1.0079           0
   11389 WTD1 8154 TIP3 OH2  OT    -0.834000       15.9994           0
   11390 WTD1 8154 TIP3 H1   HT     0.417000        1.0079           0
   11391 WTD1 8154 TIP3 H2   HT     0.417000        1.0079           0
   11392 WTD1 8157 TIP3 OH2  OT    -0.834000       15.9994           0
   11393 WTD1 8157 TIP3 H1   HT     0.417000        1.0079           0
   11394 WTD1 8157 TIP3 H2   HT     0.417000        1.0079           0
   11395 WTD1 8169 TIP3 OH2  OT    -0.834000       15.9994           0
   11396 WTD1 8169 TIP3 H1   HT     0.417000        1.0079           0
   11397 WTD1 8169 TIP3 H2   HT     0.417000        1.0079           0
   11398 WTD1 8171 TIP3 OH2  OT    -0.834000       15.9994           0
   11399 WTD1 8171 TIP3 H1   HT     0.417000        1.0079           0
   11400 WTD1 8171 TIP3 H2   HT     0.417000        1.0079           0
   11401 WTD1 8173 TIP3 OH2  OT    -0.834000       15.9994           0
   11402 WTD1 8173 TIP3 H1   HT     0.417000        1.0079           0
   11403 WTD1 8173 TIP3 H2   HT     0.417000        1.0079           0
   11404 WTD1 8174 TIP3 OH2  OT    -0.834000       15.9994           0
   11405 WTD1 8174 TIP3 H1   HT     0.417000        1.0079           0
   11406 WTD1 8174 TIP3 H2   HT     0.417000        1.0079           0
   11407 WTD1 8192 TIP3 OH2  OT    -0.834000       15.9994           0
   11408 WTD1 8192 TIP3 H1   HT     0.417000        1.0079           0
   11409 WTD1 8192 TIP3 H2   HT     0.417000        1.0079           0
   11410 WTD1 8193 TIP3 OH2  OT    -0.834000       15.9994           0
   11411 WTD1 8193 TIP3 H1   HT     0.417000        1.0079           0
   11412 WTD1 8193 TIP3 H2   HT     0.417000        1.0079           0
   11413 WTD1 8194 TIP3 OH2  OT    -0.834000       15.9994           0
   11414 WTD1 8194 TIP3 H1   HT     0.417000        1.0079           0
   11415 WTD1 8194 TIP3 H2   HT     0.417000        1.0079           0
   11416 WTD1 8211 TIP3 OH2  OT    -0.834000       15.9994           0
   11417 WTD1 8211 TIP3 H1   HT     0.417000        1.0079           0
   11418 WTD1 8211 TIP3 H2   HT     0.417000        1.0079           0
   11419 WTD1 8212 TIP3 OH2  OT    -0.834000       15.9994           0
   11420 WTD1 8212 TIP3 H1   HT     0.417000        1.0079           0
   11421 WTD1 8212 TIP3 H2   HT     0.417000        1.0079           0
   11422 WTD1 8231 TIP3 OH2  OT    -0.834000       15.9994           0
   11423 WTD1 8231 TIP3 H1   HT     0.417000        1.0079           0
   11424 WTD1 8231 TIP3 H2   HT     0.417000        1.0079           0
   11425 WTD1 8233 TIP3 OH2  OT    -0.834000       15.9994           0
   11426 WTD1 8233 TIP3 H1   HT     0.417000        1.0079           0
   11427 WTD1 8233 TIP3 H2   HT     0.417000        1.0079           0
   11428 WTD1 8234 TIP3 OH2  OT    -0.834000       15.9994           0
   11429 WTD1 8234 TIP3 H1   HT     0.417000        1.0079           0
   11430 WTD1 8234 TIP3 H2   HT     0.417000        1.0079           0
   11431 WTD1 8235 TIP3 OH2  OT    -0.834000       15.9994           0
   11432 WTD1 8235 TIP3 H1   HT     0.417000        1.0079           0
   11433 WTD1 8235 TIP3 H2   HT     0.417000        1.0079           0
   11434 WTD1 8239 TIP3 OH2  OT    -0.834000       15.9994           0
   11435 WTD1 8239 TIP3 H1   HT     0.417000        1.0079           0
   11436 WTD1 8239 TIP3 H2   HT     0.417000        1.0079           0
   11437 WTD1 8254 TIP3 OH2  OT    -0.834000       15.9994           0
   11438 WTD1 8254 TIP3 H1   HT     0.417000        1.0079           0
   11439 WTD1 8254 TIP3 H2   HT     0.417000        1.0079           0
   11440 WTD1 8256 TIP3 OH2  OT    -0.834000       15.9994           0
   11441 WTD1 8256 TIP3 H1   HT     0.417000        1.0079           0
   11442 WTD1 8256 TIP3 H2   HT     0.417000        1.0079           0
   11443 WTD1 8257 TIP3 OH2  OT    -0.834000       15.9994           0
   11444 WTD1 8257 TIP3 H1   HT     0.417000        1.0079           0
   11445 WTD1 8257 TIP3 H2   HT     0.417000        1.0079           0
   11446 WTD1 8258 TIP3 OH2  OT    -0.834000       15.9994           0
   11447 WTD1 8258 TIP3 H1   HT     0.417000        1.0079           0
   11448 WTD1 8258 TIP3 H2   HT     0.417000        1.0079           0
   11449 WTD1 8276 TIP3 OH2  OT    -0.834000       15.9994           0
   11450 WTD1 8276 TIP3 H1   HT     0.417000        1.0079           0
   11451 WTD1 8276 TIP3 H2   HT     0.417000        1.0079           0
   11452 WTD1 8278 TIP3 OH2  OT    -0.834000       15.9994           0
   11453 WTD1 8278 TIP3 H1   HT     0.417000        1.0079           0
   11454 WTD1 8278 TIP3 H2   HT     0.417000        1.0079           0
   11455 WTD1 8281 TIP3 OH2  OT    -0.834000       15.9994           0
   11456 WTD1 8281 TIP3 H1   HT     0.417000        1.0079           0
   11457 WTD1 8281 TIP3 H2   HT     0.417000        1.0079           0
   11458 WTD1 8296 TIP3 OH2  OT    -0.834000       15.9994           0
   11459 WTD1 8296 TIP3 H1   HT     0.417000        1.0079           0
   11460 WTD1 8296 TIP3 H2   HT     0.417000        1.0079           0
   11461 WTD1 8300 TIP3 OH2  OT    -0.834000       15.9994           0
   11462 WTD1 8300 TIP3 H1   HT     0.417000        1.0079           0
   11463 WTD1 8300 TIP3 H2   HT     0.417000        1.0079           0
   11464 WTD1 8301 TIP3 OH2  OT    -0.834000       15.9994           0
   11465 WTD1 8301 TIP3 H1   HT     0.417000        1.0079           0
   11466 WTD1 8301 TIP3 H2   HT     0.417000        1.0079           0
   11467 WTD1 8315 TIP3 OH2  OT    -0.834000       15.9994           0
   11468 WTD1 8315 TIP3 H1   HT     0.417000        1.0079           0
   11469 WTD1 8315 TIP3 H2   HT     0.417000        1.0079           0
   11470 WTD1 8319 TIP3 OH2  OT    -0.834000       15.9994           0
   11471 WTD1 8319 TIP3 H1   HT     0.417000        1.0079           0
   11472 WTD1 8319 TIP3 H2   HT     0.417000        1.0079           0
   11473 WTD1 8338 TIP3 OH2  OT    -0.834000       15.9994           0
   11474 WTD1 8338 TIP3 H1   HT     0.417000        1.0079           0
   11475 WTD1 8338 TIP3 H2   HT     0.417000        1.0079           0
   11476 WTD1 8345 TIP3 OH2  OT    -0.834000       15.9994           0
   11477 WTD1 8345 TIP3 H1   HT     0.417000        1.0079           0
   11478 WTD1 8345 TIP3 H2   HT     0.417000        1.0079           0
   11479 WTD1 8363 TIP3 OH2  OT    -0.834000       15.9994           0
   11480 WTD1 8363 TIP3 H1   HT     0.417000        1.0079           0
   11481 WTD1 8363 TIP3 H2   HT     0.417000        1.0079           0
   11482 WTD1 8366 TIP3 OH2  OT    -0.834000       15.9994           0
   11483 WTD1 8366 TIP3 H1   HT     0.417000        1.0079           0
   11484 WTD1 8366 TIP3 H2   HT     0.417000        1.0079           0
   11485 WTD1 8367 TIP3 OH2  OT    -0.834000       15.9994           0
   11486 WTD1 8367 TIP3 H1   HT     0.417000        1.0079           0
   11487 WTD1 8367 TIP3 H2   HT     0.417000        1.0079           0
   11488 WTD1 8377 TIP3 OH2  OT    -0.834000       15.9994           0
   11489 WTD1 8377 TIP3 H1   HT     0.417000        1.0079           0
   11490 WTD1 8377 TIP3 H2   HT     0.417000        1.0079           0
   11491 WTD1 8378 TIP3 OH2  OT    -0.834000       15.9994           0
   11492 WTD1 8378 TIP3 H1   HT     0.417000        1.0079           0
   11493 WTD1 8378 TIP3 H2   HT     0.417000        1.0079           0
   11494 WTD1 8379 TIP3 OH2  OT    -0.834000       15.9994           0
   11495 WTD1 8379 TIP3 H1   HT     0.417000        1.0079           0
   11496 WTD1 8379 TIP3 H2   HT     0.417000        1.0079           0
   11497 WTD1 8380 TIP3 OH2  OT    -0.834000       15.9994           0
   11498 WTD1 8380 TIP3 H1   HT     0.417000        1.0079           0
   11499 WTD1 8380 TIP3 H2   HT     0.417000        1.0079           0
   11500 WTD1 8381 TIP3 OH2  OT    -0.834000       15.9994           0
   11501 WTD1 8381 TIP3 H1   HT     0.417000        1.0079           0
   11502 WTD1 8381 TIP3 H2   HT     0.417000        1.0079           0
   11503 WTD1 8382 TIP3 OH2  OT    -0.834000       15.9994           0
   11504 WTD1 8382 TIP3 H1   HT     0.417000        1.0079           0
   11505 WTD1 8382 TIP3 H2   HT     0.417000        1.0079           0
   11506 WTD1 8385 TIP3 OH2  OT    -0.834000       15.9994           0
   11507 WTD1 8385 TIP3 H1   HT     0.417000        1.0079           0
   11508 WTD1 8385 TIP3 H2   HT     0.417000        1.0079           0
   11509 WTD1 8403 TIP3 OH2  OT    -0.834000       15.9994           0
   11510 WTD1 8403 TIP3 H1   HT     0.417000        1.0079           0
   11511 WTD1 8403 TIP3 H2   HT     0.417000        1.0079           0
   11512 WTD1 8425 TIP3 OH2  OT    -0.834000       15.9994           0
   11513 WTD1 8425 TIP3 H1   HT     0.417000        1.0079           0
   11514 WTD1 8425 TIP3 H2   HT     0.417000        1.0079           0
   11515 WTD1 8427 TIP3 OH2  OT    -0.834000       15.9994           0
   11516 WTD1 8427 TIP3 H1   HT     0.417000        1.0079           0
   11517 WTD1 8427 TIP3 H2   HT     0.417000        1.0079           0
   11518 WTD1 8428 TIP3 OH2  OT    -0.834000       15.9994           0
   11519 WTD1 8428 TIP3 H1   HT     0.417000        1.0079           0
   11520 WTD1 8428 TIP3 H2   HT     0.417000        1.0079           0
   11521 WTD1 8442 TIP3 OH2  OT    -0.834000       15.9994           0
   11522 WTD1 8442 TIP3 H1   HT     0.417000        1.0079           0
   11523 WTD1 8442 TIP3 H2   HT     0.417000        1.0079           0
   11524 WTD1 8444 TIP3 OH2  OT    -0.834000       15.9994           0
   11525 WTD1 8444 TIP3 H1   HT     0.417000        1.0079           0
   11526 WTD1 8444 TIP3 H2   HT     0.417000        1.0079           0
   11527 WTD1 8446 TIP3 OH2  OT    -0.834000       15.9994           0
   11528 WTD1 8446 TIP3 H1   HT     0.417000        1.0079           0
   11529 WTD1 8446 TIP3 H2   HT     0.417000        1.0079           0
   11530 WTD1 8462 TIP3 OH2  OT    -0.834000       15.9994           0
   11531 WTD1 8462 TIP3 H1   HT     0.417000        1.0079           0
   11532 WTD1 8462 TIP3 H2   HT     0.417000        1.0079           0
   11533 WTD1 8463 TIP3 OH2  OT    -0.834000       15.9994           0
   11534 WTD1 8463 TIP3 H1   HT     0.417000        1.0079           0
   11535 WTD1 8463 TIP3 H2   HT     0.417000        1.0079           0
   11536 WTD1 8465 TIP3 OH2  OT    -0.834000       15.9994           0
   11537 WTD1 8465 TIP3 H1   HT     0.417000        1.0079           0
   11538 WTD1 8465 TIP3 H2   HT     0.417000        1.0079           0
   11539 WTD1 8466 TIP3 OH2  OT    -0.834000       15.9994           0
   11540 WTD1 8466 TIP3 H1   HT     0.417000        1.0079           0
   11541 WTD1 8466 TIP3 H2   HT     0.417000        1.0079           0
   11542 WTD1 8468 TIP3 OH2  OT    -0.834000       15.9994           0
   11543 WTD1 8468 TIP3 H1   HT     0.417000        1.0079           0
   11544 WTD1 8468 TIP3 H2   HT     0.417000        1.0079           0
   11545 WTD1 8486 TIP3 OH2  OT    -0.834000       15.9994           0
   11546 WTD1 8486 TIP3 H1   HT     0.417000        1.0079           0
   11547 WTD1 8486 TIP3 H2   HT     0.417000        1.0079           0
   11548 WTD1 8487 TIP3 OH2  OT    -0.834000       15.9994           0
   11549 WTD1 8487 TIP3 H1   HT     0.417000        1.0079           0
   11550 WTD1 8487 TIP3 H2   HT     0.417000        1.0079           0
   11551 WTD1 8488 TIP3 OH2  OT    -0.834000       15.9994           0
   11552 WTD1 8488 TIP3 H1   HT     0.417000        1.0079           0
   11553 WTD1 8488 TIP3 H2   HT     0.417000        1.0079           0
   11554 WTD1 8504 TIP3 OH2  OT    -0.834000       15.9994           0
   11555 WTD1 8504 TIP3 H1   HT     0.417000        1.0079           0
   11556 WTD1 8504 TIP3 H2   HT     0.417000        1.0079           0
   11557 WTD1 8505 TIP3 OH2  OT    -0.834000       15.9994           0
   11558 WTD1 8505 TIP3 H1   HT     0.417000        1.0079           0
   11559 WTD1 8505 TIP3 H2   HT     0.417000        1.0079           0
   11560 WTD1 8507 TIP3 OH2  OT    -0.834000       15.9994           0
   11561 WTD1 8507 TIP3 H1   HT     0.417000        1.0079           0
   11562 WTD1 8507 TIP3 H2   HT     0.417000        1.0079           0
   11563 WTD1 8508 TIP3 OH2  OT    -0.834000       15.9994           0
   11564 WTD1 8508 TIP3 H1   HT     0.417000        1.0079           0
   11565 WTD1 8508 TIP3 H2   HT     0.417000        1.0079           0
   11566 WTD1 8509 TIP3 OH2  OT    -0.834000       15.9994           0
   11567 WTD1 8509 TIP3 H1   HT     0.417000        1.0079           0
   11568 WTD1 8509 TIP3 H2   HT     0.417000        1.0079           0
   11569 WTD1 8513 TIP3 OH2  OT    -0.834000       15.9994           0
   11570 WTD1 8513 TIP3 H1   HT     0.417000        1.0079           0
   11571 WTD1 8513 TIP3 H2   HT     0.417000        1.0079           0
   11572 WTD1 8528 TIP3 OH2  OT    -0.834000       15.9994           0
   11573 WTD1 8528 TIP3 H1   HT     0.417000        1.0079           0
   11574 WTD1 8528 TIP3 H2   HT     0.417000        1.0079           0
   11575 WTD1 8529 TIP3 OH2  OT    -0.834000       15.9994           0
   11576 WTD1 8529 TIP3 H1   HT     0.417000        1.0079           0
   11577 WTD1 8529 TIP3 H2   HT     0.417000        1.0079           0
   11578 WTD1 8530 TIP3 OH2  OT    -0.834000       15.9994           0
   11579 WTD1 8530 TIP3 H1   HT     0.417000        1.0079           0
   11580 WTD1 8530 TIP3 H2   HT     0.417000        1.0079           0
   11581 WTD1 8531 TIP3 OH2  OT    -0.834000       15.9994           0
   11582 WTD1 8531 TIP3 H1   HT     0.417000        1.0079           0
   11583 WTD1 8531 TIP3 H2   HT     0.417000        1.0079           0
   11584 WTD1 8532 TIP3 OH2  OT    -0.834000       15.9994           0
   11585 WTD1 8532 TIP3 H1   HT     0.417000        1.0079           0
   11586 WTD1 8532 TIP3 H2   HT     0.417000        1.0079           0
   11587 WTD1 8533 TIP3 OH2  OT    -0.834000       15.9994           0
   11588 WTD1 8533 TIP3 H1   HT     0.417000        1.0079           0
   11589 WTD1 8533 TIP3 H2   HT     0.417000        1.0079           0
   11590 WTD1 8534 TIP3 OH2  OT    -0.834000       15.9994           0
   11591 WTD1 8534 TIP3 H1   HT     0.417000        1.0079           0
   11592 WTD1 8534 TIP3 H2   HT     0.417000        1.0079           0
   11593 WTD1 8535 TIP3 OH2  OT    -0.834000       15.9994           0
   11594 WTD1 8535 TIP3 H1   HT     0.417000        1.0079           0
   11595 WTD1 8535 TIP3 H2   HT     0.417000        1.0079           0
   11596 WTD1 8543 TIP3 OH2  OT    -0.834000       15.9994           0
   11597 WTD1 8543 TIP3 H1   HT     0.417000        1.0079           0
   11598 WTD1 8543 TIP3 H2   HT     0.417000        1.0079           0
   11599 WTD1 8548 TIP3 OH2  OT    -0.834000       15.9994           0
   11600 WTD1 8548 TIP3 H1   HT     0.417000        1.0079           0
   11601 WTD1 8548 TIP3 H2   HT     0.417000        1.0079           0
   11602 WTD1 8550 TIP3 OH2  OT    -0.834000       15.9994           0
   11603 WTD1 8550 TIP3 H1   HT     0.417000        1.0079           0
   11604 WTD1 8550 TIP3 H2   HT     0.417000        1.0079           0
   11605 WTD1 8551 TIP3 OH2  OT    -0.834000       15.9994           0
   11606 WTD1 8551 TIP3 H1   HT     0.417000        1.0079           0
   11607 WTD1 8551 TIP3 H2   HT     0.417000        1.0079           0
   11608 WTD1 8572 TIP3 OH2  OT    -0.834000       15.9994           0
   11609 WTD1 8572 TIP3 H1   HT     0.417000        1.0079           0
   11610 WTD1 8572 TIP3 H2   HT     0.417000        1.0079           0
   11611 WTD1 8573 TIP3 OH2  OT    -0.834000       15.9994           0
   11612 WTD1 8573 TIP3 H1   HT     0.417000        1.0079           0
   11613 WTD1 8573 TIP3 H2   HT     0.417000        1.0079           0
   11614 WTD1 8589 TIP3 OH2  OT    -0.834000       15.9994           0
   11615 WTD1 8589 TIP3 H1   HT     0.417000        1.0079           0
   11616 WTD1 8589 TIP3 H2   HT     0.417000        1.0079           0
   11617 WTD1 8590 TIP3 OH2  OT    -0.834000       15.9994           0
   11618 WTD1 8590 TIP3 H1   HT     0.417000        1.0079           0
   11619 WTD1 8590 TIP3 H2   HT     0.417000        1.0079           0
   11620 WTD1 8592 TIP3 OH2  OT    -0.834000       15.9994           0
   11621 WTD1 8592 TIP3 H1   HT     0.417000        1.0079           0
   11622 WTD1 8592 TIP3 H2   HT     0.417000        1.0079           0
   11623 WTD1 8593 TIP3 OH2  OT    -0.834000       15.9994           0
   11624 WTD1 8593 TIP3 H1   HT     0.417000        1.0079           0
   11625 WTD1 8593 TIP3 H2   HT     0.417000        1.0079           0
   11626 WTD1 8594 TIP3 OH2  OT    -0.834000       15.9994           0
   11627 WTD1 8594 TIP3 H1   HT     0.417000        1.0079           0
   11628 WTD1 8594 TIP3 H2   HT     0.417000        1.0079           0
   11629 WTD1 8611 TIP3 OH2  OT    -0.834000       15.9994           0
   11630 WTD1 8611 TIP3 H1   HT     0.417000        1.0079           0
   11631 WTD1 8611 TIP3 H2   HT     0.417000        1.0079           0
   11632 WTD1 8613 TIP3 OH2  OT    -0.834000       15.9994           0
   11633 WTD1 8613 TIP3 H1   HT     0.417000        1.0079           0
   11634 WTD1 8613 TIP3 H2   HT     0.417000        1.0079           0
   11635 WTD1 8617 TIP3 OH2  OT    -0.834000       15.9994           0
   11636 WTD1 8617 TIP3 H1   HT     0.417000        1.0079           0
   11637 WTD1 8617 TIP3 H2   HT     0.417000        1.0079           0
   11638 WTD1 8631 TIP3 OH2  OT    -0.834000       15.9994           0
   11639 WTD1 8631 TIP3 H1   HT     0.417000        1.0079           0
   11640 WTD1 8631 TIP3 H2   HT     0.417000        1.0079           0
   11641 WTD1 8633 TIP3 OH2  OT    -0.834000       15.9994           0
   11642 WTD1 8633 TIP3 H1   HT     0.417000        1.0079           0
   11643 WTD1 8633 TIP3 H2   HT     0.417000        1.0079           0
   11644 WTD1 8634 TIP3 OH2  OT    -0.834000       15.9994           0
   11645 WTD1 8634 TIP3 H1   HT     0.417000        1.0079           0
   11646 WTD1 8634 TIP3 H2   HT     0.417000        1.0079           0
   11647 WTD1 8653 TIP3 OH2  OT    -0.834000       15.9994           0
   11648 WTD1 8653 TIP3 H1   HT     0.417000        1.0079           0
   11649 WTD1 8653 TIP3 H2   HT     0.417000        1.0079           0
   11650 WTD1 8656 TIP3 OH2  OT    -0.834000       15.9994           0
   11651 WTD1 8656 TIP3 H1   HT     0.417000        1.0079           0
   11652 WTD1 8656 TIP3 H2   HT     0.417000        1.0079           0
   11653 WTD1 8657 TIP3 OH2  OT    -0.834000       15.9994           0
   11654 WTD1 8657 TIP3 H1   HT     0.417000        1.0079           0
   11655 WTD1 8657 TIP3 H2   HT     0.417000        1.0079           0
   11656 WTD1 8675 TIP3 OH2  OT    -0.834000       15.9994           0
   11657 WTD1 8675 TIP3 H1   HT     0.417000        1.0079           0
   11658 WTD1 8675 TIP3 H2   HT     0.417000        1.0079           0
   11659 WTD1 8676 TIP3 OH2  OT    -0.834000       15.9994           0
   11660 WTD1 8676 TIP3 H1   HT     0.417000        1.0079           0
   11661 WTD1 8676 TIP3 H2   HT     0.417000        1.0079           0
   11662 WTD1 8677 TIP3 OH2  OT    -0.834000       15.9994           0
   11663 WTD1 8677 TIP3 H1   HT     0.417000        1.0079           0
   11664 WTD1 8677 TIP3 H2   HT     0.417000        1.0079           0
   11665 WTD1 8679 TIP3 OH2  OT    -0.834000       15.9994           0
   11666 WTD1 8679 TIP3 H1   HT     0.417000        1.0079           0
   11667 WTD1 8679 TIP3 H2   HT     0.417000        1.0079           0
   11668 WTD1 8691 TIP3 OH2  OT    -0.834000       15.9994           0
   11669 WTD1 8691 TIP3 H1   HT     0.417000        1.0079           0
   11670 WTD1 8691 TIP3 H2   HT     0.417000        1.0079           0
   11671 WTD1 8694 TIP3 OH2  OT    -0.834000       15.9994           0
   11672 WTD1 8694 TIP3 H1   HT     0.417000        1.0079           0
   11673 WTD1 8694 TIP3 H2   HT     0.417000        1.0079           0
   11674 WTD1 8695 TIP3 OH2  OT    -0.834000       15.9994           0
   11675 WTD1 8695 TIP3 H1   HT     0.417000        1.0079           0
   11676 WTD1 8695 TIP3 H2   HT     0.417000        1.0079           0
   11677 WTD1 8696 TIP3 OH2  OT    -0.834000       15.9994           0
   11678 WTD1 8696 TIP3 H1   HT     0.417000        1.0079           0
   11679 WTD1 8696 TIP3 H2   HT     0.417000        1.0079           0
   11680 WTD1 8697 TIP3 OH2  OT    -0.834000       15.9994           0
   11681 WTD1 8697 TIP3 H1   HT     0.417000        1.0079           0
   11682 WTD1 8697 TIP3 H2   HT     0.417000        1.0079           0
   11683 WTD1 8699 TIP3 OH2  OT    -0.834000       15.9994           0
   11684 WTD1 8699 TIP3 H1   HT     0.417000        1.0079           0
   11685 WTD1 8699 TIP3 H2   HT     0.417000        1.0079           0
   11686 WTD1 8704 TIP3 OH2  OT    -0.834000       15.9994           0
   11687 WTD1 8704 TIP3 H1   HT     0.417000        1.0079           0
   11688 WTD1 8704 TIP3 H2   HT     0.417000        1.0079           0
   11689 WTD1 8715 TIP3 OH2  OT    -0.834000       15.9994           0
   11690 WTD1 8715 TIP3 H1   HT     0.417000        1.0079           0
   11691 WTD1 8715 TIP3 H2   HT     0.417000        1.0079           0
   11692 WTD1 8717 TIP3 OH2  OT    -0.834000       15.9994           0
   11693 WTD1 8717 TIP3 H1   HT     0.417000        1.0079           0
   11694 WTD1 8717 TIP3 H2   HT     0.417000        1.0079           0
   11695 WTD1 8718 TIP3 OH2  OT    -0.834000       15.9994           0
   11696 WTD1 8718 TIP3 H1   HT     0.417000        1.0079           0
   11697 WTD1 8718 TIP3 H2   HT     0.417000        1.0079           0
   11698 WTD1 8722 TIP3 OH2  OT    -0.834000       15.9994           0
   11699 WTD1 8722 TIP3 H1   HT     0.417000        1.0079           0
   11700 WTD1 8722 TIP3 H2   HT     0.417000        1.0079           0
   11701 WTD1 8737 TIP3 OH2  OT    -0.834000       15.9994           0
   11702 WTD1 8737 TIP3 H1   HT     0.417000        1.0079           0
   11703 WTD1 8737 TIP3 H2   HT     0.417000        1.0079           0
   11704 WTD1 8738 TIP3 OH2  OT    -0.834000       15.9994           0
   11705 WTD1 8738 TIP3 H1   HT     0.417000        1.0079           0
   11706 WTD1 8738 TIP3 H2   HT     0.417000        1.0079           0
   11707 WTD1 8741 TIP3 OH2  OT    -0.834000       15.9994           0
   11708 WTD1 8741 TIP3 H1   HT     0.417000        1.0079           0
   11709 WTD1 8741 TIP3 H2   HT     0.417000        1.0079           0
   11710 WTD1 8743 TIP3 OH2  OT    -0.834000       15.9994           0
   11711 WTD1 8743 TIP3 H1   HT     0.417000        1.0079           0
   11712 WTD1 8743 TIP3 H2   HT     0.417000        1.0079           0
   11713 WTD1 8746 TIP3 OH2  OT    -0.834000       15.9994           0
   11714 WTD1 8746 TIP3 H1   HT     0.417000        1.0079           0
   11715 WTD1 8746 TIP3 H2   HT     0.417000        1.0079           0
   11716 WTD1 8754 TIP3 OH2  OT    -0.834000       15.9994           0
   11717 WTD1 8754 TIP3 H1   HT     0.417000        1.0079           0
   11718 WTD1 8754 TIP3 H2   HT     0.417000        1.0079           0
   11719 WTD1 8757 TIP3 OH2  OT    -0.834000       15.9994           0
   11720 WTD1 8757 TIP3 H1   HT     0.417000        1.0079           0
   11721 WTD1 8757 TIP3 H2   HT     0.417000        1.0079           0
   11722 WTD1 8760 TIP3 OH2  OT    -0.834000       15.9994           0
   11723 WTD1 8760 TIP3 H1   HT     0.417000        1.0079           0
   11724 WTD1 8760 TIP3 H2   HT     0.417000        1.0079           0
   11725 WTD1 8761 TIP3 OH2  OT    -0.834000       15.9994           0
   11726 WTD1 8761 TIP3 H1   HT     0.417000        1.0079           0
   11727 WTD1 8761 TIP3 H2   HT     0.417000        1.0079           0
   11728 WTD1 8763 TIP3 OH2  OT    -0.834000       15.9994           0
   11729 WTD1 8763 TIP3 H1   HT     0.417000        1.0079           0
   11730 WTD1 8763 TIP3 H2   HT     0.417000        1.0079           0
   11731 WTD1 8764 TIP3 OH2  OT    -0.834000       15.9994           0
   11732 WTD1 8764 TIP3 H1   HT     0.417000        1.0079           0
   11733 WTD1 8764 TIP3 H2   HT     0.417000        1.0079           0
   11734 WTD1 8778 TIP3 OH2  OT    -0.834000       15.9994           0
   11735 WTD1 8778 TIP3 H1   HT     0.417000        1.0079           0
   11736 WTD1 8778 TIP3 H2   HT     0.417000        1.0079           0
   11737 WTD1 8780 TIP3 OH2  OT    -0.834000       15.9994           0
   11738 WTD1 8780 TIP3 H1   HT     0.417000        1.0079           0
   11739 WTD1 8780 TIP3 H2   HT     0.417000        1.0079           0
   11740 WTD1 8783 TIP3 OH2  OT    -0.834000       15.9994           0
   11741 WTD1 8783 TIP3 H1   HT     0.417000        1.0079           0
   11742 WTD1 8783 TIP3 H2   HT     0.417000        1.0079           0
   11743 WTD1 8785 TIP3 OH2  OT    -0.834000       15.9994           0
   11744 WTD1 8785 TIP3 H1   HT     0.417000        1.0079           0
   11745 WTD1 8785 TIP3 H2   HT     0.417000        1.0079           0
   11746 WTD1 8797 TIP3 OH2  OT    -0.834000       15.9994           0
   11747 WTD1 8797 TIP3 H1   HT     0.417000        1.0079           0
   11748 WTD1 8797 TIP3 H2   HT     0.417000        1.0079           0
   11749 WTD1 8800 TIP3 OH2  OT    -0.834000       15.9994           0
   11750 WTD1 8800 TIP3 H1   HT     0.417000        1.0079           0
   11751 WTD1 8800 TIP3 H2   HT     0.417000        1.0079           0
   11752 WTD1 8801 TIP3 OH2  OT    -0.834000       15.9994           0
   11753 WTD1 8801 TIP3 H1   HT     0.417000        1.0079           0
   11754 WTD1 8801 TIP3 H2   HT     0.417000        1.0079           0
   11755 WTD1 8802 TIP3 OH2  OT    -0.834000       15.9994           0
   11756 WTD1 8802 TIP3 H1   HT     0.417000        1.0079           0
   11757 WTD1 8802 TIP3 H2   HT     0.417000        1.0079           0
   11758 WTD1 8803 TIP3 OH2  OT    -0.834000       15.9994           0
   11759 WTD1 8803 TIP3 H1   HT     0.417000        1.0079           0
   11760 WTD1 8803 TIP3 H2   HT     0.417000        1.0079           0
   11761 WTD1 8804 TIP3 OH2  OT    -0.834000       15.9994           0
   11762 WTD1 8804 TIP3 H1   HT     0.417000        1.0079           0
   11763 WTD1 8804 TIP3 H2   HT     0.417000        1.0079           0
   11764 WTD1 8819 TIP3 OH2  OT    -0.834000       15.9994           0
   11765 WTD1 8819 TIP3 H1   HT     0.417000        1.0079           0
   11766 WTD1 8819 TIP3 H2   HT     0.417000        1.0079           0
   11767 WTD1 8820 TIP3 OH2  OT    -0.834000       15.9994           0
   11768 WTD1 8820 TIP3 H1   HT     0.417000        1.0079           0
   11769 WTD1 8820 TIP3 H2   HT     0.417000        1.0079           0
   11770 WTD1 8822 TIP3 OH2  OT    -0.834000       15.9994           0
   11771 WTD1 8822 TIP3 H1   HT     0.417000        1.0079           0
   11772 WTD1 8822 TIP3 H2   HT     0.417000        1.0079           0
   11773 WTD1 8823 TIP3 OH2  OT    -0.834000       15.9994           0
   11774 WTD1 8823 TIP3 H1   HT     0.417000        1.0079           0
   11775 WTD1 8823 TIP3 H2   HT     0.417000        1.0079           0
   11776 WTD1 8827 TIP3 OH2  OT    -0.834000       15.9994           0
   11777 WTD1 8827 TIP3 H1   HT     0.417000        1.0079           0
   11778 WTD1 8827 TIP3 H2   HT     0.417000        1.0079           0
   11779 WTD1 8829 TIP3 OH2  OT    -0.834000       15.9994           0
   11780 WTD1 8829 TIP3 H1   HT     0.417000        1.0079           0
   11781 WTD1 8829 TIP3 H2   HT     0.417000        1.0079           0
   11782 WTD1 8842 TIP3 OH2  OT    -0.834000       15.9994           0
   11783 WTD1 8842 TIP3 H1   HT     0.417000        1.0079           0
   11784 WTD1 8842 TIP3 H2   HT     0.417000        1.0079           0
   11785 WTD1 8843 TIP3 OH2  OT    -0.834000       15.9994           0
   11786 WTD1 8843 TIP3 H1   HT     0.417000        1.0079           0
   11787 WTD1 8843 TIP3 H2   HT     0.417000        1.0079           0
   11788 WTD1 8844 TIP3 OH2  OT    -0.834000       15.9994           0
   11789 WTD1 8844 TIP3 H1   HT     0.417000        1.0079           0
   11790 WTD1 8844 TIP3 H2   HT     0.417000        1.0079           0
   11791 WTD1 8845 TIP3 OH2  OT    -0.834000       15.9994           0
   11792 WTD1 8845 TIP3 H1   HT     0.417000        1.0079           0
   11793 WTD1 8845 TIP3 H2   HT     0.417000        1.0079           0
   11794 WTD1 8846 TIP3 OH2  OT    -0.834000       15.9994           0
   11795 WTD1 8846 TIP3 H1   HT     0.417000        1.0079           0
   11796 WTD1 8846 TIP3 H2   HT     0.417000        1.0079           0
   11797 WTD1 8849 TIP3 OH2  OT    -0.834000       15.9994           0
   11798 WTD1 8849 TIP3 H1   HT     0.417000        1.0079           0
   11799 WTD1 8849 TIP3 H2   HT     0.417000        1.0079           0
   11800 WTD1 8863 TIP3 OH2  OT    -0.834000       15.9994           0
   11801 WTD1 8863 TIP3 H1   HT     0.417000        1.0079           0
   11802 WTD1 8863 TIP3 H2   HT     0.417000        1.0079           0
   11803 WTD1 8865 TIP3 OH2  OT    -0.834000       15.9994           0
   11804 WTD1 8865 TIP3 H1   HT     0.417000        1.0079           0
   11805 WTD1 8865 TIP3 H2   HT     0.417000        1.0079           0
   11806 WTD1 8867 TIP3 OH2  OT    -0.834000       15.9994           0
   11807 WTD1 8867 TIP3 H1   HT     0.417000        1.0079           0
   11808 WTD1 8867 TIP3 H2   HT     0.417000        1.0079           0
   11809 WTD1 8868 TIP3 OH2  OT    -0.834000       15.9994           0
   11810 WTD1 8868 TIP3 H1   HT     0.417000        1.0079           0
   11811 WTD1 8868 TIP3 H2   HT     0.417000        1.0079           0
   11812 WTD1 8869 TIP3 OH2  OT    -0.834000       15.9994           0
   11813 WTD1 8869 TIP3 H1   HT     0.417000        1.0079           0
   11814 WTD1 8869 TIP3 H2   HT     0.417000        1.0079           0
   11815 WTD1 8883 TIP3 OH2  OT    -0.834000       15.9994           0
   11816 WTD1 8883 TIP3 H1   HT     0.417000        1.0079           0
   11817 WTD1 8883 TIP3 H2   HT     0.417000        1.0079           0
   11818 WTD1 8884 TIP3 OH2  OT    -0.834000       15.9994           0
   11819 WTD1 8884 TIP3 H1   HT     0.417000        1.0079           0
   11820 WTD1 8884 TIP3 H2   HT     0.417000        1.0079           0
   11821 WTD1 8885 TIP3 OH2  OT    -0.834000       15.9994           0
   11822 WTD1 8885 TIP3 H1   HT     0.417000        1.0079           0
   11823 WTD1 8885 TIP3 H2   HT     0.417000        1.0079           0
   11824 WTD1 8886 TIP3 OH2  OT    -0.834000       15.9994           0
   11825 WTD1 8886 TIP3 H1   HT     0.417000        1.0079           0
   11826 WTD1 8886 TIP3 H2   HT     0.417000        1.0079           0
   11827 WTD1 8889 TIP3 OH2  OT    -0.834000       15.9994           0
   11828 WTD1 8889 TIP3 H1   HT     0.417000        1.0079           0
   11829 WTD1 8889 TIP3 H2   HT     0.417000        1.0079           0
   11830 WTD1 8891 TIP3 OH2  OT    -0.834000       15.9994           0
   11831 WTD1 8891 TIP3 H1   HT     0.417000        1.0079           0
   11832 WTD1 8891 TIP3 H2   HT     0.417000        1.0079           0
   11833 WTD1 8903 TIP3 OH2  OT    -0.834000       15.9994           0
   11834 WTD1 8903 TIP3 H1   HT     0.417000        1.0079           0
   11835 WTD1 8903 TIP3 H2   HT     0.417000        1.0079           0
   11836 WTD1 8905 TIP3 OH2  OT    -0.834000       15.9994           0
   11837 WTD1 8905 TIP3 H1   HT     0.417000        1.0079           0
   11838 WTD1 8905 TIP3 H2   HT     0.417000        1.0079           0
   11839 WTD1 8906 TIP3 OH2  OT    -0.834000       15.9994           0
   11840 WTD1 8906 TIP3 H1   HT     0.417000        1.0079           0
   11841 WTD1 8906 TIP3 H2   HT     0.417000        1.0079           0
   11842 WTD1 8908 TIP3 OH2  OT    -0.834000       15.9994           0
   11843 WTD1 8908 TIP3 H1   HT     0.417000        1.0079           0
   11844 WTD1 8908 TIP3 H2   HT     0.417000        1.0079           0
   11845 WTD1 8911 TIP3 OH2  OT    -0.834000       15.9994           0
   11846 WTD1 8911 TIP3 H1   HT     0.417000        1.0079           0
   11847 WTD1 8911 TIP3 H2   HT     0.417000        1.0079           0
   11848 WTD1 8926 TIP3 OH2  OT    -0.834000       15.9994           0
   11849 WTD1 8926 TIP3 H1   HT     0.417000        1.0079           0
   11850 WTD1 8926 TIP3 H2   HT     0.417000        1.0079           0
   11851 WTD1 8927 TIP3 OH2  OT    -0.834000       15.9994           0
   11852 WTD1 8927 TIP3 H1   HT     0.417000        1.0079           0
   11853 WTD1 8927 TIP3 H2   HT     0.417000        1.0079           0
   11854 WTD1 8935 TIP3 OH2  OT    -0.834000       15.9994           0
   11855 WTD1 8935 TIP3 H1   HT     0.417000        1.0079           0
   11856 WTD1 8935 TIP3 H2   HT     0.417000        1.0079           0
   11857 WTD1 8944 TIP3 OH2  OT    -0.834000       15.9994           0
   11858 WTD1 8944 TIP3 H1   HT     0.417000        1.0079           0
   11859 WTD1 8944 TIP3 H2   HT     0.417000        1.0079           0
   11860 WTD1 8949 TIP3 OH2  OT    -0.834000       15.9994           0
   11861 WTD1 8949 TIP3 H1   HT     0.417000        1.0079           0
   11862 WTD1 8949 TIP3 H2   HT     0.417000        1.0079           0
   11863 WTD1 8950 TIP3 OH2  OT    -0.834000       15.9994           0
   11864 WTD1 8950 TIP3 H1   HT     0.417000        1.0079           0
   11865 WTD1 8950 TIP3 H2   HT     0.417000        1.0079           0
   11866 WTD1 8951 TIP3 OH2  OT    -0.834000       15.9994           0
   11867 WTD1 8951 TIP3 H1   HT     0.417000        1.0079           0
   11868 WTD1 8951 TIP3 H2   HT     0.417000        1.0079           0
   11869 WTD1 8954 TIP3 OH2  OT    -0.834000       15.9994           0
   11870 WTD1 8954 TIP3 H1   HT     0.417000        1.0079           0
   11871 WTD1 8954 TIP3 H2   HT     0.417000        1.0079           0
   11872 WTD1 8967 TIP3 OH2  OT    -0.834000       15.9994           0
   11873 WTD1 8967 TIP3 H1   HT     0.417000        1.0079           0
   11874 WTD1 8967 TIP3 H2   HT     0.417000        1.0079           0
   11875 WTD1 8969 TIP3 OH2  OT    -0.834000       15.9994           0
   11876 WTD1 8969 TIP3 H1   HT     0.417000        1.0079           0
   11877 WTD1 8969 TIP3 H2   HT     0.417000        1.0079           0
   11878 WTD1 8970 TIP3 OH2  OT    -0.834000       15.9994           0
   11879 WTD1 8970 TIP3 H1   HT     0.417000        1.0079           0
   11880 WTD1 8970 TIP3 H2   HT     0.417000        1.0079           0
   11881 WTD1 8973 TIP3 OH2  OT    -0.834000       15.9994           0
   11882 WTD1 8973 TIP3 H1   HT     0.417000        1.0079           0
   11883 WTD1 8973 TIP3 H2   HT     0.417000        1.0079           0
   11884 WTD1 8976 TIP3 OH2  OT    -0.834000       15.9994           0
   11885 WTD1 8976 TIP3 H1   HT     0.417000        1.0079           0
   11886 WTD1 8976 TIP3 H2   HT     0.417000        1.0079           0
   11887 WTD1 8977 TIP3 OH2  OT    -0.834000       15.9994           0
   11888 WTD1 8977 TIP3 H1   HT     0.417000        1.0079           0
   11889 WTD1 8977 TIP3 H2   HT     0.417000        1.0079           0
   11890 WTD1 8988 TIP3 OH2  OT    -0.834000       15.9994           0
   11891 WTD1 8988 TIP3 H1   HT     0.417000        1.0079           0
   11892 WTD1 8988 TIP3 H2   HT     0.417000        1.0079           0
   11893 WTD1 8991 TIP3 OH2  OT    -0.834000       15.9994           0
   11894 WTD1 8991 TIP3 H1   HT     0.417000        1.0079           0
   11895 WTD1 8991 TIP3 H2   HT     0.417000        1.0079           0
   11896 WTD1 8996 TIP3 OH2  OT    -0.834000       15.9994           0
   11897 WTD1 8996 TIP3 H1   HT     0.417000        1.0079           0
   11898 WTD1 8996 TIP3 H2   HT     0.417000        1.0079           0
   11899 WTD1 9008 TIP3 OH2  OT    -0.834000       15.9994           0
   11900 WTD1 9008 TIP3 H1   HT     0.417000        1.0079           0
   11901 WTD1 9008 TIP3 H2   HT     0.417000        1.0079           0
   11902 WTD1 9009 TIP3 OH2  OT    -0.834000       15.9994           0
   11903 WTD1 9009 TIP3 H1   HT     0.417000        1.0079           0
   11904 WTD1 9009 TIP3 H2   HT     0.417000        1.0079           0
   11905 WTD1 9013 TIP3 OH2  OT    -0.834000       15.9994           0
   11906 WTD1 9013 TIP3 H1   HT     0.417000        1.0079           0
   11907 WTD1 9013 TIP3 H2   HT     0.417000        1.0079           0
   11908 WTD1 9015 TIP3 OH2  OT    -0.834000       15.9994           0
   11909 WTD1 9015 TIP3 H1   HT     0.417000        1.0079           0
   11910 WTD1 9015 TIP3 H2   HT     0.417000        1.0079           0
   11911 WTD1 9019 TIP3 OH2  OT    -0.834000       15.9994           0
   11912 WTD1 9019 TIP3 H1   HT     0.417000        1.0079           0
   11913 WTD1 9019 TIP3 H2   HT     0.417000        1.0079           0
   11914 WTD1 9034 TIP3 OH2  OT    -0.834000       15.9994           0
   11915 WTD1 9034 TIP3 H1   HT     0.417000        1.0079           0
   11916 WTD1 9034 TIP3 H2   HT     0.417000        1.0079           0
   11917 WTD1 9035 TIP3 OH2  OT    -0.834000       15.9994           0
   11918 WTD1 9035 TIP3 H1   HT     0.417000        1.0079           0
   11919 WTD1 9035 TIP3 H2   HT     0.417000        1.0079           0
   11920 WTD1 9039 TIP3 OH2  OT    -0.834000       15.9994           0
   11921 WTD1 9039 TIP3 H1   HT     0.417000        1.0079           0
   11922 WTD1 9039 TIP3 H2   HT     0.417000        1.0079           0
   11923 WTD1 9047 TIP3 OH2  OT    -0.834000       15.9994           0
   11924 WTD1 9047 TIP3 H1   HT     0.417000        1.0079           0
   11925 WTD1 9047 TIP3 H2   HT     0.417000        1.0079           0
   11926 WTD1 9051 TIP3 OH2  OT    -0.834000       15.9994           0
   11927 WTD1 9051 TIP3 H1   HT     0.417000        1.0079           0
   11928 WTD1 9051 TIP3 H2   HT     0.417000        1.0079           0
   11929 WTD1 9052 TIP3 OH2  OT    -0.834000       15.9994           0
   11930 WTD1 9052 TIP3 H1   HT     0.417000        1.0079           0
   11931 WTD1 9052 TIP3 H2   HT     0.417000        1.0079           0
   11932 WTD1 9054 TIP3 OH2  OT    -0.834000       15.9994           0
   11933 WTD1 9054 TIP3 H1   HT     0.417000        1.0079           0
   11934 WTD1 9054 TIP3 H2   HT     0.417000        1.0079           0
   11935 WTD1 9055 TIP3 OH2  OT    -0.834000       15.9994           0
   11936 WTD1 9055 TIP3 H1   HT     0.417000        1.0079           0
   11937 WTD1 9055 TIP3 H2   HT     0.417000        1.0079           0
   11938 WTD1 9072 TIP3 OH2  OT    -0.834000       15.9994           0
   11939 WTD1 9072 TIP3 H1   HT     0.417000        1.0079           0
   11940 WTD1 9072 TIP3 H2   HT     0.417000        1.0079           0
   11941 WTD1 9073 TIP3 OH2  OT    -0.834000       15.9994           0
   11942 WTD1 9073 TIP3 H1   HT     0.417000        1.0079           0
   11943 WTD1 9073 TIP3 H2   HT     0.417000        1.0079           0
   11944 WTD1 9079 TIP3 OH2  OT    -0.834000       15.9994           0
   11945 WTD1 9079 TIP3 H1   HT     0.417000        1.0079           0
   11946 WTD1 9079 TIP3 H2   HT     0.417000        1.0079           0
   11947 WTD1 9082 TIP3 OH2  OT    -0.834000       15.9994           0
   11948 WTD1 9082 TIP3 H1   HT     0.417000        1.0079           0
   11949 WTD1 9082 TIP3 H2   HT     0.417000        1.0079           0
   11950 WTD1 9092 TIP3 OH2  OT    -0.834000       15.9994           0
   11951 WTD1 9092 TIP3 H1   HT     0.417000        1.0079           0
   11952 WTD1 9092 TIP3 H2   HT     0.417000        1.0079           0
   11953 WTD1 9093 TIP3 OH2  OT    -0.834000       15.9994           0
   11954 WTD1 9093 TIP3 H1   HT     0.417000        1.0079           0
   11955 WTD1 9093 TIP3 H2   HT     0.417000        1.0079           0
   11956 WTD1 9094 TIP3 OH2  OT    -0.834000       15.9994           0
   11957 WTD1 9094 TIP3 H1   HT     0.417000        1.0079           0
   11958 WTD1 9094 TIP3 H2   HT     0.417000        1.0079           0
   11959 WTD1 9096 TIP3 OH2  OT    -0.834000       15.9994           0
   11960 WTD1 9096 TIP3 H1   HT     0.417000        1.0079           0
   11961 WTD1 9096 TIP3 H2   HT     0.417000        1.0079           0
   11962 WTD1 9097 TIP3 OH2  OT    -0.834000       15.9994           0
   11963 WTD1 9097 TIP3 H1   HT     0.417000        1.0079           0
   11964 WTD1 9097 TIP3 H2   HT     0.417000        1.0079           0
   11965 WTD1 9098 TIP3 OH2  OT    -0.834000       15.9994           0
   11966 WTD1 9098 TIP3 H1   HT     0.417000        1.0079           0
   11967 WTD1 9098 TIP3 H2   HT     0.417000        1.0079           0
   11968 WTD1 9099 TIP3 OH2  OT    -0.834000       15.9994           0
   11969 WTD1 9099 TIP3 H1   HT     0.417000        1.0079           0
   11970 WTD1 9099 TIP3 H2   HT     0.417000        1.0079           0
   11971 WTD1 9110 TIP3 OH2  OT    -0.834000       15.9994           0
   11972 WTD1 9110 TIP3 H1   HT     0.417000        1.0079           0
   11973 WTD1 9110 TIP3 H2   HT     0.417000        1.0079           0
   11974 WTD1 9116 TIP3 OH2  OT    -0.834000       15.9994           0
   11975 WTD1 9116 TIP3 H1   HT     0.417000        1.0079           0
   11976 WTD1 9116 TIP3 H2   HT     0.417000        1.0079           0
   11977 WTD1 9117 TIP3 OH2  OT    -0.834000       15.9994           0
   11978 WTD1 9117 TIP3 H1   HT     0.417000        1.0079           0
   11979 WTD1 9117 TIP3 H2   HT     0.417000        1.0079           0
   11980 WTD1 9120 TIP3 OH2  OT    -0.834000       15.9994           0
   11981 WTD1 9120 TIP3 H1   HT     0.417000        1.0079           0
   11982 WTD1 9120 TIP3 H2   HT     0.417000        1.0079           0
   11983 WTD1 9122 TIP3 OH2  OT    -0.834000       15.9994           0
   11984 WTD1 9122 TIP3 H1   HT     0.417000        1.0079           0
   11985 WTD1 9122 TIP3 H2   HT     0.417000        1.0079           0
   11986 WTD1 9136 TIP3 OH2  OT    -0.834000       15.9994           0
   11987 WTD1 9136 TIP3 H1   HT     0.417000        1.0079           0
   11988 WTD1 9136 TIP3 H2   HT     0.417000        1.0079           0
   11989 WTD1 9138 TIP3 OH2  OT    -0.834000       15.9994           0
   11990 WTD1 9138 TIP3 H1   HT     0.417000        1.0079           0
   11991 WTD1 9138 TIP3 H2   HT     0.417000        1.0079           0
   11992 WTD1 9139 TIP3 OH2  OT    -0.834000       15.9994           0
   11993 WTD1 9139 TIP3 H1   HT     0.417000        1.0079           0
   11994 WTD1 9139 TIP3 H2   HT     0.417000        1.0079           0
   11995 WTD1 9157 TIP3 OH2  OT    -0.834000       15.9994           0
   11996 WTD1 9157 TIP3 H1   HT     0.417000        1.0079           0
   11997 WTD1 9157 TIP3 H2   HT     0.417000        1.0079           0
   11998 WTD1 9158 TIP3 OH2  OT    -0.834000       15.9994           0
   11999 WTD1 9158 TIP3 H1   HT     0.417000        1.0079           0
   12000 WTD1 9158 TIP3 H2   HT     0.417000        1.0079           0
   12001 WTD1 9159 TIP3 OH2  OT    -0.834000       15.9994           0
   12002 WTD1 9159 TIP3 H1   HT     0.417000        1.0079           0
   12003 WTD1 9159 TIP3 H2   HT     0.417000        1.0079           0
   12004 WTD1 9161 TIP3 OH2  OT    -0.834000       15.9994           0
   12005 WTD1 9161 TIP3 H1   HT     0.417000        1.0079           0
   12006 WTD1 9161 TIP3 H2   HT     0.417000        1.0079           0
   12007 WTD1 9177 TIP3 OH2  OT    -0.834000       15.9994           0
   12008 WTD1 9177 TIP3 H1   HT     0.417000        1.0079           0
   12009 WTD1 9177 TIP3 H2   HT     0.417000        1.0079           0
   12010 WTD1 9180 TIP3 OH2  OT    -0.834000       15.9994           0
   12011 WTD1 9180 TIP3 H1   HT     0.417000        1.0079           0
   12012 WTD1 9180 TIP3 H2   HT     0.417000        1.0079           0
   12013 WTD1 9181 TIP3 OH2  OT    -0.834000       15.9994           0
   12014 WTD1 9181 TIP3 H1   HT     0.417000        1.0079           0
   12015 WTD1 9181 TIP3 H2   HT     0.417000        1.0079           0
   12016 WTD1 9185 TIP3 OH2  OT    -0.834000       15.9994           0
   12017 WTD1 9185 TIP3 H1   HT     0.417000        1.0079           0
   12018 WTD1 9185 TIP3 H2   HT     0.417000        1.0079           0
   12019 WTD1 9198 TIP3 OH2  OT    -0.834000       15.9994           0
   12020 WTD1 9198 TIP3 H1   HT     0.417000        1.0079           0
   12021 WTD1 9198 TIP3 H2   HT     0.417000        1.0079           0
   12022 WTD1 9203 TIP3 OH2  OT    -0.834000       15.9994           0
   12023 WTD1 9203 TIP3 H1   HT     0.417000        1.0079           0
   12024 WTD1 9203 TIP3 H2   HT     0.417000        1.0079           0
   12025 WTD1 9219 TIP3 OH2  OT    -0.834000       15.9994           0
   12026 WTD1 9219 TIP3 H1   HT     0.417000        1.0079           0
   12027 WTD1 9219 TIP3 H2   HT     0.417000        1.0079           0
   12028 WTD1 9222 TIP3 OH2  OT    -0.834000       15.9994           0
   12029 WTD1 9222 TIP3 H1   HT     0.417000        1.0079           0
   12030 WTD1 9222 TIP3 H2   HT     0.417000        1.0079           0
   12031 WTD1 9223 TIP3 OH2  OT    -0.834000       15.9994           0
   12032 WTD1 9223 TIP3 H1   HT     0.417000        1.0079           0
   12033 WTD1 9223 TIP3 H2   HT     0.417000        1.0079           0
   12034 WTD1 9225 TIP3 OH2  OT    -0.834000       15.9994           0
   12035 WTD1 9225 TIP3 H1   HT     0.417000        1.0079           0
   12036 WTD1 9225 TIP3 H2   HT     0.417000        1.0079           0
   12037 WTD1 9226 TIP3 OH2  OT    -0.834000       15.9994           0
   12038 WTD1 9226 TIP3 H1   HT     0.417000        1.0079           0
   12039 WTD1 9226 TIP3 H2   HT     0.417000        1.0079           0
   12040 WTD1 9227 TIP3 OH2  OT    -0.834000       15.9994           0
   12041 WTD1 9227 TIP3 H1   HT     0.417000        1.0079           0
   12042 WTD1 9227 TIP3 H2   HT     0.417000        1.0079           0
   12043 WTD1 9243 TIP3 OH2  OT    -0.834000       15.9994           0
   12044 WTD1 9243 TIP3 H1   HT     0.417000        1.0079           0
   12045 WTD1 9243 TIP3 H2   HT     0.417000        1.0079           0
   12046 WTD1 9244 TIP3 OH2  OT    -0.834000       15.9994           0
   12047 WTD1 9244 TIP3 H1   HT     0.417000        1.0079           0
   12048 WTD1 9244 TIP3 H2   HT     0.417000        1.0079           0
   12049 WTD1 9245 TIP3 OH2  OT    -0.834000       15.9994           0
   12050 WTD1 9245 TIP3 H1   HT     0.417000        1.0079           0
   12051 WTD1 9245 TIP3 H2   HT     0.417000        1.0079           0
   12052 WTD1 9246 TIP3 OH2  OT    -0.834000       15.9994           0
   12053 WTD1 9246 TIP3 H1   HT     0.417000        1.0079           0
   12054 WTD1 9246 TIP3 H2   HT     0.417000        1.0079           0
   12055 WTD1 9247 TIP3 OH2  OT    -0.834000       15.9994           0
   12056 WTD1 9247 TIP3 H1   HT     0.417000        1.0079           0
   12057 WTD1 9247 TIP3 H2   HT     0.417000        1.0079           0
   12058 WTD1 9259 TIP3 OH2  OT    -0.834000       15.9994           0
   12059 WTD1 9259 TIP3 H1   HT     0.417000        1.0079           0
   12060 WTD1 9259 TIP3 H2   HT     0.417000        1.0079           0
   12061 WTD2 11   TIP3 OH2  OT    -0.834000       15.9994           0
   12062 WTD2 11   TIP3 H1   HT     0.417000        1.0079           0
   12063 WTD2 11   TIP3 H2   HT     0.417000        1.0079           0
   12064 WTD2 22   TIP3 OH2  OT    -0.834000       15.9994           0
   12065 WTD2 22   TIP3 H1   HT     0.417000        1.0079           0
   12066 WTD2 22   TIP3 H2   HT     0.417000        1.0079           0
   12067 WTD2 69   TIP3 OH2  OT    -0.834000       15.9994           0
   12068 WTD2 69   TIP3 H1   HT     0.417000        1.0079           0
   12069 WTD2 69   TIP3 H2   HT     0.417000        1.0079           0
   12070 WTD2 107  TIP3 OH2  OT    -0.834000       15.9994           0
   12071 WTD2 107  TIP3 H1   HT     0.417000        1.0079           0
   12072 WTD2 107  TIP3 H2   HT     0.417000        1.0079           0
   12073 WTD2 125  TIP3 OH2  OT    -0.834000       15.9994           0
   12074 WTD2 125  TIP3 H1   HT     0.417000        1.0079           0
   12075 WTD2 125  TIP3 H2   HT     0.417000        1.0079           0
   12076 WTD2 130  TIP3 OH2  OT    -0.834000       15.9994           0
   12077 WTD2 130  TIP3 H1   HT     0.417000        1.0079           0
   12078 WTD2 130  TIP3 H2   HT     0.417000        1.0079           0
   12079 WTD2 447  TIP3 OH2  OT    -0.834000       15.9994           0
   12080 WTD2 447  TIP3 H1   HT     0.417000        1.0079           0
   12081 WTD2 447  TIP3 H2   HT     0.417000        1.0079           0
   12082 WTD2 465  TIP3 OH2  OT    -0.834000       15.9994           0
   12083 WTD2 465  TIP3 H1   HT     0.417000        1.0079           0
   12084 WTD2 465  TIP3 H2   HT     0.417000        1.0079           0
   12085 WTD2 467  TIP3 OH2  OT    -0.834000       15.9994           0
   12086 WTD2 467  TIP3 H1   HT     0.417000        1.0079           0
   12087 WTD2 467  TIP3 H2   HT     0.417000        1.0079           0
   12088 WTD2 484  TIP3 OH2  OT    -0.834000       15.9994           0
   12089 WTD2 484  TIP3 H1   HT     0.417000        1.0079           0
   12090 WTD2 484  TIP3 H2   HT     0.417000        1.0079           0
   12091 WTD2 486  TIP3 OH2  OT    -0.834000       15.9994           0
   12092 WTD2 486  TIP3 H1   HT     0.417000        1.0079           0
   12093 WTD2 486  TIP3 H2   HT     0.417000        1.0079           0
   12094 WTD2 822  TIP3 OH2  OT    -0.834000       15.9994           0
   12095 WTD2 822  TIP3 H1   HT     0.417000        1.0079           0
   12096 WTD2 822  TIP3 H2   HT     0.417000        1.0079           0
   12097 WTD2 906  TIP3 OH2  OT    -0.834000       15.9994           0
   12098 WTD2 906  TIP3 H1   HT     0.417000        1.0079           0
   12099 WTD2 906  TIP3 H2   HT     0.417000        1.0079           0
   12100 WTD2 907  TIP3 OH2  OT    -0.834000       15.9994           0
   12101 WTD2 907  TIP3 H1   HT     0.417000        1.0079           0
   12102 WTD2 907  TIP3 H2   HT     0.417000        1.0079           0
   12103 WTD2 947  TIP3 OH2  OT    -0.834000       15.9994           0
   12104 WTD2 947  TIP3 H1   HT     0.417000        1.0079           0
   12105 WTD2 947  TIP3 H2   HT     0.417000        1.0079           0
   12106 WTD2 948  TIP3 OH2  OT    -0.834000       15.9994           0
   12107 WTD2 948  TIP3 H1   HT     0.417000        1.0079           0
   12108 WTD2 948  TIP3 H2   HT     0.417000        1.0079           0
   12109 WTD2 993  TIP3 OH2  OT    -0.834000       15.9994           0
   12110 WTD2 993  TIP3 H1   HT     0.417000        1.0079           0
   12111 WTD2 993  TIP3 H2   HT     0.417000        1.0079           0
   12112 WTD2 1301 TIP3 OH2  OT    -0.834000       15.9994           0
   12113 WTD2 1301 TIP3 H1   HT     0.417000        1.0079           0
   12114 WTD2 1301 TIP3 H2   HT     0.417000        1.0079           0
   12115 WTD2 1305 TIP3 OH2  OT    -0.834000       15.9994           0
   12116 WTD2 1305 TIP3 H1   HT     0.417000        1.0079           0
   12117 WTD2 1305 TIP3 H2   HT     0.417000        1.0079           0
   12118 WTD2 1322 TIP3 OH2  OT    -0.834000       15.9994           0
   12119 WTD2 1322 TIP3 H1   HT     0.417000        1.0079           0
   12120 WTD2 1322 TIP3 H2   HT     0.417000        1.0079           0
   12121 WTD2 1326 TIP3 OH2  OT    -0.834000       15.9994           0
   12122 WTD2 1326 TIP3 H1   HT     0.417000        1.0079           0
   12123 WTD2 1326 TIP3 H2   HT     0.417000        1.0079           0
   12124 WTD2 1327 TIP3 OH2  OT    -0.834000       15.9994           0
   12125 WTD2 1327 TIP3 H1   HT     0.417000        1.0079           0
   12126 WTD2 1327 TIP3 H2   HT     0.417000        1.0079           0
   12127 WTD2 1328 TIP3 OH2  OT    -0.834000       15.9994           0
   12128 WTD2 1328 TIP3 H1   HT     0.417000        1.0079           0
   12129 WTD2 1328 TIP3 H2   HT     0.417000        1.0079           0
   12130 WTD2 1331 TIP3 OH2  OT    -0.834000       15.9994           0
   12131 WTD2 1331 TIP3 H1   HT     0.417000        1.0079           0
   12132 WTD2 1331 TIP3 H2   HT     0.417000        1.0079           0
   12133 WTD2 1370 TIP3 OH2  OT    -0.834000       15.9994           0
   12134 WTD2 1370 TIP3 H1   HT     0.417000        1.0079           0
   12135 WTD2 1370 TIP3 H2   HT     0.417000        1.0079           0
   12136 WTD2 1428 TIP3 OH2  OT    -0.834000       15.9994           0
   12137 WTD2 1428 TIP3 H1   HT     0.417000        1.0079           0
   12138 WTD2 1428 TIP3 H2   HT     0.417000        1.0079           0
   12139 WTD2 1707 TIP3 OH2  OT    -0.834000       15.9994           0
   12140 WTD2 1707 TIP3 H1   HT     0.417000        1.0079           0
   12141 WTD2 1707 TIP3 H2   HT     0.417000        1.0079           0
   12142 WTD2 1725 TIP3 OH2  OT    -0.834000       15.9994           0
   12143 WTD2 1725 TIP3 H1   HT     0.417000        1.0079           0
   12144 WTD2 1725 TIP3 H2   HT     0.417000        1.0079           0
   12145 WTD2 1744 TIP3 OH2  OT    -0.834000       15.9994           0
   12146 WTD2 1744 TIP3 H1   HT     0.417000        1.0079           0
   12147 WTD2 1744 TIP3 H2   HT     0.417000        1.0079           0
   12148 WTD2 1748 TIP3 OH2  OT    -0.834000       15.9994           0
   12149 WTD2 1748 TIP3 H1   HT     0.417000        1.0079           0
   12150 WTD2 1748 TIP3 H2   HT     0.417000        1.0079           0
   12151 WTD2 1764 TIP3 OH2  OT    -0.834000       15.9994           0
   12152 WTD2 1764 TIP3 H1   HT     0.417000        1.0079           0
   12153 WTD2 1764 TIP3 H2   HT     0.417000        1.0079           0
   12154 WTD2 1771 TIP3 OH2  OT    -0.834000       15.9994           0
   12155 WTD2 1771 TIP3 H1   HT     0.417000        1.0079           0
   12156 WTD2 1771 TIP3 H2   HT     0.417000        1.0079           0
   12157 WTD2 1811 TIP3 OH2  OT    -0.834000       15.9994           0
   12158 WTD2 1811 TIP3 H1   HT     0.417000        1.0079           0
   12159 WTD2 1811 TIP3 H2   HT     0.417000        1.0079           0
   12160 WTD2 1824 TIP3 OH2  OT    -0.834000       15.9994           0
   12161 WTD2 1824 TIP3 H1   HT     0.417000        1.0079           0
   12162 WTD2 1824 TIP3 H2   HT     0.417000        1.0079           0
   12163 WTD2 1831 TIP3 OH2  OT    -0.834000       15.9994           0
   12164 WTD2 1831 TIP3 H1   HT     0.417000        1.0079           0
   12165 WTD2 1831 TIP3 H2   HT     0.417000        1.0079           0
   12166 WTD2 2123 TIP3 OH2  OT    -0.834000       15.9994           0
   12167 WTD2 2123 TIP3 H1   HT     0.417000        1.0079           0
   12168 WTD2 2123 TIP3 H2   HT     0.417000        1.0079           0
   12169 WTD2 2165 TIP3 OH2  OT    -0.834000       15.9994           0
   12170 WTD2 2165 TIP3 H1   HT     0.417000        1.0079           0
   12171 WTD2 2165 TIP3 H2   HT     0.417000        1.0079           0
   12172 WTD2 2167 TIP3 OH2  OT    -0.834000       15.9994           0
   12173 WTD2 2167 TIP3 H1   HT     0.417000        1.0079           0
   12174 WTD2 2167 TIP3 H2   HT     0.417000        1.0079           0
   12175 WTD2 2187 TIP3 OH2  OT    -0.834000       15.9994           0
   12176 WTD2 2187 TIP3 H1   HT     0.417000        1.0079           0
   12177 WTD2 2187 TIP3 H2   HT     0.417000        1.0079           0
   12178 WTD2 2227 TIP3 OH2  OT    -0.834000       15.9994           0
   12179 WTD2 2227 TIP3 H1   HT     0.417000        1.0079           0
   12180 WTD2 2227 TIP3 H2   HT     0.417000        1.0079           0
   12181 WTD2 2244 TIP3 OH2  OT    -0.834000       15.9994           0
   12182 WTD2 2244 TIP3 H1   HT     0.417000        1.0079           0
   12183 WTD2 2244 TIP3 H2   HT     0.417000        1.0079           0
   12184 WTD2 2250 TIP3 OH2  OT    -0.834000       15.9994           0
   12185 WTD2 2250 TIP3 H1   HT     0.417000        1.0079           0
   12186 WTD2 2250 TIP3 H2   HT     0.417000        1.0079           0
   12187 WTD2 2316 TIP3 OH2  OT    -0.834000       15.9994           0
   12188 WTD2 2316 TIP3 H1   HT     0.417000        1.0079           0
   12189 WTD2 2316 TIP3 H2   HT     0.417000        1.0079           0
   12190 WTD2 2606 TIP3 OH2  OT    -0.834000       15.9994           0
   12191 WTD2 2606 TIP3 H1   HT     0.417000        1.0079           0
   12192 WTD2 2606 TIP3 H2   HT     0.417000        1.0079           0
   12193 WTD2 2607 TIP3 OH2  OT    -0.834000       15.9994           0
   12194 WTD2 2607 TIP3 H1   HT     0.417000        1.0079           0
   12195 WTD2 2607 TIP3 H2   HT     0.417000        1.0079           0
   12196 WTD2 2608 TIP3 OH2  OT    -0.834000       15.9994           0
   12197 WTD2 2608 TIP3 H1   HT     0.417000        1.0079           0
   12198 WTD2 2608 TIP3 H2   HT     0.417000        1.0079           0
   12199 WTD2 2610 TIP3 OH2  OT    -0.834000       15.9994           0
   12200 WTD2 2610 TIP3 H1   HT     0.417000        1.0079           0
   12201 WTD2 2610 TIP3 H2   HT     0.417000        1.0079           0
   12202 WTD2 2624 TIP3 OH2  OT    -0.834000       15.9994           0
   12203 WTD2 2624 TIP3 H1   HT     0.417000        1.0079           0
   12204 WTD2 2624 TIP3 H2   HT     0.417000        1.0079           0
   12205 WTD2 2634 TIP3 OH2  OT    -0.834000       15.9994           0
   12206 WTD2 2634 TIP3 H1   HT     0.417000        1.0079           0
   12207 WTD2 2634 TIP3 H2   HT     0.417000        1.0079           0
   12208 WTD2 2650 TIP3 OH2  OT    -0.834000       15.9994           0
   12209 WTD2 2650 TIP3 H1   HT     0.417000        1.0079           0
   12210 WTD2 2650 TIP3 H2   HT     0.417000        1.0079           0
   12211 WTD2 2652 TIP3 OH2  OT    -0.834000       15.9994           0
   12212 WTD2 2652 TIP3 H1   HT     0.417000        1.0079           0
   12213 WTD2 2652 TIP3 H2   HT     0.417000        1.0079           0
   12214 WTD2 2689 TIP3 OH2  OT    -0.834000       15.9994           0
   12215 WTD2 2689 TIP3 H1   HT     0.417000        1.0079           0
   12216 WTD2 2689 TIP3 H2   HT     0.417000        1.0079           0
   12217 WTD2 2690 TIP3 OH2  OT    -0.834000       15.9994           0
   12218 WTD2 2690 TIP3 H1   HT     0.417000        1.0079           0
   12219 WTD2 2690 TIP3 H2   HT     0.417000        1.0079           0
   12220 WTD2 3010 TIP3 OH2  OT    -0.834000       15.9994           0
   12221 WTD2 3010 TIP3 H1   HT     0.417000        1.0079           0
   12222 WTD2 3010 TIP3 H2   HT     0.417000        1.0079           0
   12223 WTD2 3072 TIP3 OH2  OT    -0.834000       15.9994           0
   12224 WTD2 3072 TIP3 H1   HT     0.417000        1.0079           0
   12225 WTD2 3072 TIP3 H2   HT     0.417000        1.0079           0
   12226 WTD2 3073 TIP3 OH2  OT    -0.834000       15.9994           0
   12227 WTD2 3073 TIP3 H1   HT     0.417000        1.0079           0
   12228 WTD2 3073 TIP3 H2   HT     0.417000        1.0079           0
   12229 WTD2 3085 TIP3 OH2  OT    -0.834000       15.9994           0
   12230 WTD2 3085 TIP3 H1   HT     0.417000        1.0079           0
   12231 WTD2 3085 TIP3 H2   HT     0.417000        1.0079           0
   12232 WTD2 3086 TIP3 OH2  OT    -0.834000       15.9994           0
   12233 WTD2 3086 TIP3 H1   HT     0.417000        1.0079           0
   12234 WTD2 3086 TIP3 H2   HT     0.417000        1.0079           0
   12235 WTD2 3108 TIP3 OH2  OT    -0.834000       15.9994           0
   12236 WTD2 3108 TIP3 H1   HT     0.417000        1.0079           0
   12237 WTD2 3108 TIP3 H2   HT     0.417000        1.0079           0
   12238 WTD2 3152 TIP3 OH2  OT    -0.834000       15.9994           0
   12239 WTD2 3152 TIP3 H1   HT     0.417000        1.0079           0
   12240 WTD2 3152 TIP3 H2   HT     0.417000        1.0079           0
   12241 WTD2 3426 TIP3 OH2  OT    -0.834000       15.9994           0
   12242 WTD2 3426 TIP3 H1   HT     0.417000        1.0079           0
   12243 WTD2 3426 TIP3 H2   HT     0.417000        1.0079           0
   12244 WTD2 3447 TIP3 OH2  OT    -0.834000       15.9994           0
   12245 WTD2 3447 TIP3 H1   HT     0.417000        1.0079           0
   12246 WTD2 3447 TIP3 H2   HT     0.417000        1.0079           0
   12247 WTD2 3484 TIP3 OH2  OT    -0.834000       15.9994           0
   12248 WTD2 3484 TIP3 H1   HT     0.417000        1.0079           0
   12249 WTD2 3484 TIP3 H2   HT     0.417000        1.0079           0
   12250 WTD2 3514 TIP3 OH2  OT    -0.834000       15.9994           0
   12251 WTD2 3514 TIP3 H1   HT     0.417000        1.0079           0
   12252 WTD2 3514 TIP3 H2   HT     0.417000        1.0079           0
   12253 WTD2 3533 TIP3 OH2  OT    -0.834000       15.9994           0
   12254 WTD2 3533 TIP3 H1   HT     0.417000        1.0079           0
   12255 WTD2 3533 TIP3 H2   HT     0.417000        1.0079           0
   12256 WTD2 3569 TIP3 OH2  OT    -0.834000       15.9994           0
   12257 WTD2 3569 TIP3 H1   HT     0.417000        1.0079           0
   12258 WTD2 3569 TIP3 H2   HT     0.417000        1.0079           0
   12259 WTD2 3612 TIP3 OH2  OT    -0.834000       15.9994           0
   12260 WTD2 3612 TIP3 H1   HT     0.417000        1.0079           0
   12261 WTD2 3612 TIP3 H2   HT     0.417000        1.0079           0
   12262 WTD2 3619 TIP3 OH2  OT    -0.834000       15.9994           0
   12263 WTD2 3619 TIP3 H1   HT     0.417000        1.0079           0
   12264 WTD2 3619 TIP3 H2   HT     0.417000        1.0079           0
   12265 WTD2 3933 TIP3 OH2  OT    -0.834000       15.9994           0
   12266 WTD2 3933 TIP3 H1   HT     0.417000        1.0079           0
   12267 WTD2 3933 TIP3 H2   HT     0.417000        1.0079           0
   12268 WTD2 3951 TIP3 OH2  OT    -0.834000       15.9994           0
   12269 WTD2 3951 TIP3 H1   HT     0.417000        1.0079           0
   12270 WTD2 3951 TIP3 H2   HT     0.417000        1.0079           0
   12271 WTD2 3986 TIP3 OH2  OT    -0.834000       15.9994           0
   12272 WTD2 3986 TIP3 H1   HT     0.417000        1.0079           0
   12273 WTD2 3986 TIP3 H2   HT     0.417000        1.0079           0
   12274 WTD2 4014 TIP3 OH2  OT    -0.834000       15.9994           0
   12275 WTD2 4014 TIP3 H1   HT     0.417000        1.0079           0
   12276 WTD2 4014 TIP3 H2   HT     0.417000        1.0079           0
   12277 WTD2 4015 TIP3 OH2  OT    -0.834000       15.9994           0
   12278 WTD2 4015 TIP3 H1   HT     0.417000        1.0079           0
   12279 WTD2 4015 TIP3 H2   HT     0.417000        1.0079           0
   12280 WTD2 4017 TIP3 OH2  OT    -0.834000       15.9994           0
   12281 WTD2 4017 TIP3 H1   HT     0.417000        1.0079           0
   12282 WTD2 4017 TIP3 H2   HT     0.417000        1.0079           0
   12283 WTD2 4035 TIP3 OH2  OT    -0.834000       15.9994           0
   12284 WTD2 4035 TIP3 H1   HT     0.417000        1.0079           0
   12285 WTD2 4035 TIP3 H2   HT     0.417000        1.0079           0
   12286 WTD2 4374 TIP3 OH2  OT    -0.834000       15.9994           0
   12287 WTD2 4374 TIP3 H1   HT     0.417000        1.0079           0
   12288 WTD2 4374 TIP3 H2   HT     0.417000        1.0079           0
   12289 WTD2 4414 TIP3 OH2  OT    -0.834000       15.9994           0
   12290 WTD2 4414 TIP3 H1   HT     0.417000        1.0079           0
   12291 WTD2 4414 TIP3 H2   HT     0.417000        1.0079           0
   12292 WTD2 4434 TIP3 OH2  OT    -0.834000       15.9994           0
   12293 WTD2 4434 TIP3 H1   HT     0.417000        1.0079           0
   12294 WTD2 4434 TIP3 H2   HT     0.417000        1.0079           0
   12295 WTD2 4455 TIP3 OH2  OT    -0.834000       15.9994           0
   12296 WTD2 4455 TIP3 H1   HT     0.417000        1.0079           0
   12297 WTD2 4455 TIP3 H2   HT     0.417000        1.0079           0
   12298 WTD2 4477 TIP3 OH2  OT    -0.834000       15.9994           0
   12299 WTD2 4477 TIP3 H1   HT     0.417000        1.0079           0
   12300 WTD2 4477 TIP3 H2   HT     0.417000        1.0079           0
   12301 WTD2 4808 TIP3 OH2  OT    -0.834000       15.9994           0
   12302 WTD2 4808 TIP3 H1   HT     0.417000        1.0079           0
   12303 WTD2 4808 TIP3 H2   HT     0.417000        1.0079           0
   12304 WTD2 4809 TIP3 OH2  OT    -0.834000       15.9994           0
   12305 WTD2 4809 TIP3 H1   HT     0.417000        1.0079           0
   12306 WTD2 4809 TIP3 H2   HT     0.417000        1.0079           0
   12307 WTD2 4834 TIP3 OH2  OT    -0.834000       15.9994           0
   12308 WTD2 4834 TIP3 H1   HT     0.417000        1.0079           0
   12309 WTD2 4834 TIP3 H2   HT     0.417000        1.0079           0
   12310 WTD2 4835 TIP3 OH2  OT    -0.834000       15.9994           0
   12311 WTD2 4835 TIP3 H1   HT     0.417000        1.0079           0
   12312 WTD2 4835 TIP3 H2   HT     0.417000        1.0079           0
   12313 WTD2 4836 TIP3 OH2  OT    -0.834000       15.9994           0
   12314 WTD2 4836 TIP3 H1   HT     0.417000        1.0079           0
   12315 WTD2 4836 TIP3 H2   HT     0.417000        1.0079           0
   12316 WTD2 4853 TIP3 OH2  OT    -0.834000       15.9994           0
   12317 WTD2 4853 TIP3 H1   HT     0.417000        1.0079           0
   12318 WTD2 4853 TIP3 H2   HT     0.417000        1.0079           0
   12319 WTD2 4875 TIP3 OH2  OT    -0.834000       15.9994           0
   12320 WTD2 4875 TIP3 H1   HT     0.417000        1.0079           0
   12321 WTD2 4875 TIP3 H2   HT     0.417000        1.0079           0
   12322 WTD2 4915 TIP3 OH2  OT    -0.834000       15.9994           0
   12323 WTD2 4915 TIP3 H1   HT     0.417000        1.0079           0
   12324 WTD2 4915 TIP3 H2   HT     0.417000        1.0079           0
   12325 WTD2 4937 TIP3 OH2  OT    -0.834000       15.9994           0
   12326 WTD2 4937 TIP3 H1   HT     0.417000        1.0079           0
   12327 WTD2 4937 TIP3 H2   HT     0.417000        1.0079           0
   12328 WTD2 5193 TIP3 OH2  OT    -0.834000       15.9994           0
   12329 WTD2 5193 TIP3 H1   HT     0.417000        1.0079           0
   12330 WTD2 5193 TIP3 H2   HT     0.417000        1.0079           0
   12331 WTD2 5319 TIP3 OH2  OT    -0.834000       15.9994           0
   12332 WTD2 5319 TIP3 H1   HT     0.417000        1.0079           0
   12333 WTD2 5319 TIP3 H2   HT     0.417000        1.0079           0
   12334 WTD2 5332 TIP3 OH2  OT    -0.834000       15.9994           0
   12335 WTD2 5332 TIP3 H1   HT     0.417000        1.0079           0
   12336 WTD2 5332 TIP3 H2   HT     0.417000        1.0079           0
   12337 WTD2 5355 TIP3 OH2  OT    -0.834000       15.9994           0
   12338 WTD2 5355 TIP3 H1   HT     0.417000        1.0079           0
   12339 WTD2 5355 TIP3 H2   HT     0.417000        1.0079           0
   12340 WTD2 5356 TIP3 OH2  OT    -0.834000       15.9994           0
   12341 WTD2 5356 TIP3 H1   HT     0.417000        1.0079           0
   12342 WTD2 5356 TIP3 H2   HT     0.417000        1.0079           0
   12343 WTD2 5363 TIP3 OH2  OT    -0.834000       15.9994           0
   12344 WTD2 5363 TIP3 H1   HT     0.417000        1.0079           0
   12345 WTD2 5363 TIP3 H2   HT     0.417000        1.0079           0
   12346 WTD2 5650 TIP3 OH2  OT    -0.834000       15.9994           0
   12347 WTD2 5650 TIP3 H1   HT     0.417000        1.0079           0
   12348 WTD2 5650 TIP3 H2   HT     0.417000        1.0079           0
   12349 WTD2 5654 TIP3 OH2  OT    -0.834000       15.9994           0
   12350 WTD2 5654 TIP3 H1   HT     0.417000        1.0079           0
   12351 WTD2 5654 TIP3 H2   HT     0.417000        1.0079           0
   12352 WTD2 5669 TIP3 OH2  OT    -0.834000       15.9994           0
   12353 WTD2 5669 TIP3 H1   HT     0.417000        1.0079           0
   12354 WTD2 5669 TIP3 H2   HT     0.417000        1.0079           0
   12355 WTD2 5676 TIP3 OH2  OT    -0.834000       15.9994           0
   12356 WTD2 5676 TIP3 H1   HT     0.417000        1.0079           0
   12357 WTD2 5676 TIP3 H2   HT     0.417000        1.0079           0
   12358 WTD2 5690 TIP3 OH2  OT    -0.834000       15.9994           0
   12359 WTD2 5690 TIP3 H1   HT     0.417000        1.0079           0
   12360 WTD2 5690 TIP3 H2   HT     0.417000        1.0079           0
   12361 WTD2 5710 TIP3 OH2  OT    -0.834000       15.9994           0
   12362 WTD2 5710 TIP3 H1   HT     0.417000        1.0079           0
   12363 WTD2 5710 TIP3 H2   HT     0.417000        1.0079           0
   12364 WTD2 5734 TIP3 OH2  OT    -0.834000       15.9994           0
   12365 WTD2 5734 TIP3 H1   HT     0.417000        1.0079           0
   12366 WTD2 5734 TIP3 H2   HT     0.417000        1.0079           0
   12367 WTD2 5756 TIP3 OH2  OT    -0.834000       15.9994           0
   12368 WTD2 5756 TIP3 H1   HT     0.417000        1.0079           0
   12369 WTD2 5756 TIP3 H2   HT     0.417000        1.0079           0
   12370 WTD2 5758 TIP3 OH2  OT    -0.834000       15.9994           0
   12371 WTD2 5758 TIP3 H1   HT     0.417000        1.0079           0
   12372 WTD2 5758 TIP3 H2   HT     0.417000        1.0079           0
   12373 WTD2 5841 TIP3 OH2  OT    -0.834000       15.9994           0
   12374 WTD2 5841 TIP3 H1   HT     0.417000        1.0079           0
   12375 WTD2 5841 TIP3 H2   HT     0.417000        1.0079           0
   12376 WTD2 5884 TIP3 OH2  OT    -0.834000       15.9994           0
   12377 WTD2 5884 TIP3 H1   HT     0.417000        1.0079           0
   12378 WTD2 5884 TIP3 H2   HT     0.417000        1.0079           0
   12379 WTD2 6091 TIP3 OH2  OT    -0.834000       15.9994           0
   12380 WTD2 6091 TIP3 H1   HT     0.417000        1.0079           0
   12381 WTD2 6091 TIP3 H2   HT     0.417000        1.0079           0
   12382 WTD2 6110 TIP3 OH2  OT    -0.834000       15.9994           0
   12383 WTD2 6110 TIP3 H1   HT     0.417000        1.0079           0
   12384 WTD2 6110 TIP3 H2   HT     0.417000        1.0079           0
   12385 WTD2 6138 TIP3 OH2  OT    -0.834000       15.9994           0
   12386 WTD2 6138 TIP3 H1   HT     0.417000        1.0079           0
   12387 WTD2 6138 TIP3 H2   HT     0.417000        1.0079           0
   12388 WTD2 6158 TIP3 OH2  OT    -0.834000       15.9994           0
   12389 WTD2 6158 TIP3 H1   HT     0.417000        1.0079           0
   12390 WTD2 6158 TIP3 H2   HT     0.417000        1.0079           0
   12391 WTD2 6174 TIP3 OH2  OT    -0.834000       15.9994           0
   12392 WTD2 6174 TIP3 H1   HT     0.417000        1.0079           0
   12393 WTD2 6174 TIP3 H2   HT     0.417000        1.0079           0
   12394 WTD2 6177 TIP3 OH2  OT    -0.834000       15.9994           0
   12395 WTD2 6177 TIP3 H1   HT     0.417000        1.0079           0
   12396 WTD2 6177 TIP3 H2   HT     0.417000        1.0079           0
   12397 WTD2 6179 TIP3 OH2  OT    -0.834000       15.9994           0
   12398 WTD2 6179 TIP3 H1   HT     0.417000        1.0079           0
   12399 WTD2 6179 TIP3 H2   HT     0.417000        1.0079           0
   12400 WTD2 6183 TIP3 OH2  OT    -0.834000       15.9994           0
   12401 WTD2 6183 TIP3 H1   HT     0.417000        1.0079           0
   12402 WTD2 6183 TIP3 H2   HT     0.417000        1.0079           0
   12403 WTD2 6200 TIP3 OH2  OT    -0.834000       15.9994           0
   12404 WTD2 6200 TIP3 H1   HT     0.417000        1.0079           0
   12405 WTD2 6200 TIP3 H2   HT     0.417000        1.0079           0
   12406 WTD2 6215 TIP3 OH2  OT    -0.834000       15.9994           0
   12407 WTD2 6215 TIP3 H1   HT     0.417000        1.0079           0
   12408 WTD2 6215 TIP3 H2   HT     0.417000        1.0079           0
   12409 WTD2 6216 TIP3 OH2  OT    -0.834000       15.9994           0
   12410 WTD2 6216 TIP3 H1   HT     0.417000        1.0079           0
   12411 WTD2 6216 TIP3 H2   HT     0.417000        1.0079           0
   12412 WTD2 6219 TIP3 OH2  OT    -0.834000       15.9994           0
   12413 WTD2 6219 TIP3 H1   HT     0.417000        1.0079           0
   12414 WTD2 6219 TIP3 H2   HT     0.417000        1.0079           0
   12415 WTD2 6240 TIP3 OH2  OT    -0.834000       15.9994           0
   12416 WTD2 6240 TIP3 H1   HT     0.417000        1.0079           0
   12417 WTD2 6240 TIP3 H2   HT     0.417000        1.0079           0
   12418 WTD2 6311 TIP3 OH2  OT    -0.834000       15.9994           0
   12419 WTD2 6311 TIP3 H1   HT     0.417000        1.0079           0
   12420 WTD2 6311 TIP3 H2   HT     0.417000        1.0079           0
   12421 WTD2 6555 TIP3 OH2  OT    -0.834000       15.9994           0
   12422 WTD2 6555 TIP3 H1   HT     0.417000        1.0079           0
   12423 WTD2 6555 TIP3 H2   HT     0.417000        1.0079           0
   12424 WTD2 6597 TIP3 OH2  OT    -0.834000       15.9994           0
   12425 WTD2 6597 TIP3 H1   HT     0.417000        1.0079           0
   12426 WTD2 6597 TIP3 H2   HT     0.417000        1.0079           0
   12427 WTD2 6615 TIP3 OH2  OT    -0.834000       15.9994           0
   12428 WTD2 6615 TIP3 H1   HT     0.417000        1.0079           0
   12429 WTD2 6615 TIP3 H2   HT     0.417000        1.0079           0
   12430 WTD2 6621 TIP3 OH2  OT    -0.834000       15.9994           0
   12431 WTD2 6621 TIP3 H1   HT     0.417000        1.0079           0
   12432 WTD2 6621 TIP3 H2   HT     0.417000        1.0079           0
   12433 WTD2 6639 TIP3 OH2  OT    -0.834000       15.9994           0
   12434 WTD2 6639 TIP3 H1   HT     0.417000        1.0079           0
   12435 WTD2 6639 TIP3 H2   HT     0.417000        1.0079           0
   12436 WTD2 6659 TIP3 OH2  OT    -0.834000       15.9994           0
   12437 WTD2 6659 TIP3 H1   HT     0.417000        1.0079           0
   12438 WTD2 6659 TIP3 H2   HT     0.417000        1.0079           0
   12439 WTD2 6700 TIP3 OH2  OT    -0.834000       15.9994           0
   12440 WTD2 6700 TIP3 H1   HT     0.417000        1.0079           0
   12441 WTD2 6700 TIP3 H2   HT     0.417000        1.0079           0
   12442 WTD2 6952 TIP3 OH2  OT    -0.834000       15.9994           0
   12443 WTD2 6952 TIP3 H1   HT     0.417000        1.0079           0
   12444 WTD2 6952 TIP3 H2   HT     0.417000        1.0079           0
   12445 WTD2 6955 TIP3 OH2  OT    -0.834000       15.9994           0
   12446 WTD2 6955 TIP3 H1   HT     0.417000        1.0079           0
   12447 WTD2 6955 TIP3 H2   HT     0.417000        1.0079           0
   12448 WTD2 7017 TIP3 OH2  OT    -0.834000       15.9994           0
   12449 WTD2 7017 TIP3 H1   HT     0.417000        1.0079           0
   12450 WTD2 7017 TIP3 H2   HT     0.417000        1.0079           0
   12451 WTD2 7076 TIP3 OH2  OT    -0.834000       15.9994           0
   12452 WTD2 7076 TIP3 H1   HT     0.417000        1.0079           0
   12453 WTD2 7076 TIP3 H2   HT     0.417000        1.0079           0
   12454 WTD2 7081 TIP3 OH2  OT    -0.834000       15.9994           0
   12455 WTD2 7081 TIP3 H1   HT     0.417000        1.0079           0
   12456 WTD2 7081 TIP3 H2   HT     0.417000        1.0079           0
   12457 WTD2 7122 TIP3 OH2  OT    -0.834000       15.9994           0
   12458 WTD2 7122 TIP3 H1   HT     0.417000        1.0079           0
   12459 WTD2 7122 TIP3 H2   HT     0.417000        1.0079           0
   12460 WTD2 7418 TIP3 OH2  OT    -0.834000       15.9994           0
   12461 WTD2 7418 TIP3 H1   HT     0.417000        1.0079           0
   12462 WTD2 7418 TIP3 H2   HT     0.417000        1.0079           0
   12463 WTD2 7437 TIP3 OH2  OT    -0.834000       15.9994           0
   12464 WTD2 7437 TIP3 H1   HT     0.417000        1.0079           0
   12465 WTD2 7437 TIP3 H2   HT     0.417000        1.0079           0
   12466 WTD2 7439 TIP3 OH2  OT    -0.834000       15.9994           0
   12467 WTD2 7439 TIP3 H1   HT     0.417000        1.0079           0
   12468 WTD2 7439 TIP3 H2   HT     0.417000        1.0079           0
   12469 WTD2 7461 TIP3 OH2  OT    -0.834000       15.9994           0
   12470 WTD2 7461 TIP3 H1   HT     0.417000        1.0079           0
   12471 WTD2 7461 TIP3 H2   HT     0.417000        1.0079           0
   12472 WTD2 7479 TIP3 OH2  OT    -0.834000       15.9994           0
   12473 WTD2 7479 TIP3 H1   HT     0.417000        1.0079           0
   12474 WTD2 7479 TIP3 H2   HT     0.417000        1.0079           0
   12475 WTD2 7498 TIP3 OH2  OT    -0.834000       15.9994           0
   12476 WTD2 7498 TIP3 H1   HT     0.417000        1.0079           0
   12477 WTD2 7498 TIP3 H2   HT     0.417000        1.0079           0
   12478 WTD2 7501 TIP3 OH2  OT    -0.834000       15.9994           0
   12479 WTD2 7501 TIP3 H1   HT     0.417000        1.0079           0
   12480 WTD2 7501 TIP3 H2   HT     0.417000        1.0079           0
   12481 WTD2 7564 TIP3 OH2  OT    -0.834000       15.9994           0
   12482 WTD2 7564 TIP3 H1   HT     0.417000        1.0079           0
   12483 WTD2 7564 TIP3 H2   HT     0.417000        1.0079           0
   12484 WTD2 7602 TIP3 OH2  OT    -0.834000       15.9994           0
   12485 WTD2 7602 TIP3 H1   HT     0.417000        1.0079           0
   12486 WTD2 7602 TIP3 H2   HT     0.417000        1.0079           0
   12487 WTD2 7707 TIP3 OH2  OT    -0.834000       15.9994           0
   12488 WTD2 7707 TIP3 H1   HT     0.417000        1.0079           0
   12489 WTD2 7707 TIP3 H2   HT     0.417000        1.0079           0
   12490 WTD2 7872 TIP3 OH2  OT    -0.834000       15.9994           0
   12491 WTD2 7872 TIP3 H1   HT     0.417000        1.0079           0
   12492 WTD2 7872 TIP3 H2   HT     0.417000        1.0079           0
   12493 WTD2 7895 TIP3 OH2  OT    -0.834000       15.9994           0
   12494 WTD2 7895 TIP3 H1   HT     0.417000        1.0079           0
   12495 WTD2 7895 TIP3 H2   HT     0.417000        1.0079           0
   12496 WTD2 7933 TIP3 OH2  OT    -0.834000       15.9994           0
   12497 WTD2 7933 TIP3 H1   HT     0.417000        1.0079           0
   12498 WTD2 7933 TIP3 H2   HT     0.417000        1.0079           0
   12499 WTD2 7938 TIP3 OH2  OT    -0.834000       15.9994           0
   12500 WTD2 7938 TIP3 H1   HT     0.417000        1.0079           0
   12501 WTD2 7938 TIP3 H2   HT     0.417000        1.0079           0
   12502 WTD2 7941 TIP3 OH2  OT    -0.834000       15.9994           0
   12503 WTD2 7941 TIP3 H1   HT     0.417000        1.0079           0
   12504 WTD2 7941 TIP3 H2   HT     0.417000        1.0079           0
   12505 WTD2 7965 TIP3 OH2  OT    -0.834000       15.9994           0
   12506 WTD2 7965 TIP3 H1   HT     0.417000        1.0079           0
   12507 WTD2 7965 TIP3 H2   HT     0.417000        1.0079           0
   12508 WTD2 8005 TIP3 OH2  OT    -0.834000       15.9994           0
   12509 WTD2 8005 TIP3 H1   HT     0.417000        1.0079           0
   12510 WTD2 8005 TIP3 H2   HT     0.417000        1.0079           0
   12511 WTD2 8022 TIP3 OH2  OT    -0.834000       15.9994           0
   12512 WTD2 8022 TIP3 H1   HT     0.417000        1.0079           0
   12513 WTD2 8022 TIP3 H2   HT     0.417000        1.0079           0
   12514 WTD2 8047 TIP3 OH2  OT    -0.834000       15.9994           0
   12515 WTD2 8047 TIP3 H1   HT     0.417000        1.0079           0
   12516 WTD2 8047 TIP3 H2   HT     0.417000        1.0079           0
   12517 WTD2 8319 TIP3 OH2  OT    -0.834000       15.9994           0
   12518 WTD2 8319 TIP3 H1   HT     0.417000        1.0079           0
   12519 WTD2 8319 TIP3 H2   HT     0.417000        1.0079           0
   12520 WTD2 8377 TIP3 OH2  OT    -0.834000       15.9994           0
   12521 WTD2 8377 TIP3 H1   HT     0.417000        1.0079           0
   12522 WTD2 8377 TIP3 H2   HT     0.417000        1.0079           0
   12523 WTD2 8421 TIP3 OH2  OT    -0.834000       15.9994           0
   12524 WTD2 8421 TIP3 H1   HT     0.417000        1.0079           0
   12525 WTD2 8421 TIP3 H2   HT     0.417000        1.0079           0
   12526 WTD2 8425 TIP3 OH2  OT    -0.834000       15.9994           0
   12527 WTD2 8425 TIP3 H1   HT     0.417000        1.0079           0
   12528 WTD2 8425 TIP3 H2   HT     0.417000        1.0079           0
   12529 WTD2 8446 TIP3 OH2  OT    -0.834000       15.9994           0
   12530 WTD2 8446 TIP3 H1   HT     0.417000        1.0079           0
   12531 WTD2 8446 TIP3 H2   HT     0.417000        1.0079           0
   12532 WTD2 8447 TIP3 OH2  OT    -0.834000       15.9994           0
   12533 WTD2 8447 TIP3 H1   HT     0.417000        1.0079           0
   12534 WTD2 8447 TIP3 H2   HT     0.417000        1.0079           0
   12535 WTD2 8509 TIP3 OH2  OT    -0.834000       15.9994           0
   12536 WTD2 8509 TIP3 H1   HT     0.417000        1.0079           0
   12537 WTD2 8509 TIP3 H2   HT     0.417000        1.0079           0
   12538 WTD2 8802 TIP3 OH2  OT    -0.834000       15.9994           0
   12539 WTD2 8802 TIP3 H1   HT     0.417000        1.0079           0
   12540 WTD2 8802 TIP3 H2   HT     0.417000        1.0079           0
   12541 WTD2 8803 TIP3 OH2  OT    -0.834000       15.9994           0
   12542 WTD2 8803 TIP3 H1   HT     0.417000        1.0079           0
   12543 WTD2 8803 TIP3 H2   HT     0.417000        1.0079           0
   12544 WTD2 8820 TIP3 OH2  OT    -0.834000       15.9994           0
   12545 WTD2 8820 TIP3 H1   HT     0.417000        1.0079           0
   12546 WTD2 8820 TIP3 H2   HT     0.417000        1.0079           0
   12547 WTD2 8823 TIP3 OH2  OT    -0.834000       15.9994           0
   12548 WTD2 8823 TIP3 H1   HT     0.417000        1.0079           0
   12549 WTD2 8823 TIP3 H2   HT     0.417000        1.0079           0
   12550 WTD2 8843 TIP3 OH2  OT    -0.834000       15.9994           0
   12551 WTD2 8843 TIP3 H1   HT     0.417000        1.0079           0
   12552 WTD2 8843 TIP3 H2   HT     0.417000        1.0079           0
   12553 WTD2 8846 TIP3 OH2  OT    -0.834000       15.9994           0
   12554 WTD2 8846 TIP3 H1   HT     0.417000        1.0079           0
   12555 WTD2 8846 TIP3 H2   HT     0.417000        1.0079           0
   12556 WTD2 8849 TIP3 OH2  OT    -0.834000       15.9994           0
   12557 WTD2 8849 TIP3 H1   HT     0.417000        1.0079           0
   12558 WTD2 8849 TIP3 H2   HT     0.417000        1.0079           0
   12559 WTD2 8863 TIP3 OH2  OT    -0.834000       15.9994           0
   12560 WTD2 8863 TIP3 H1   HT     0.417000        1.0079           0
   12561 WTD2 8863 TIP3 H2   HT     0.417000        1.0079           0
   12562 WTD2 8869 TIP3 OH2  OT    -0.834000       15.9994           0
   12563 WTD2 8869 TIP3 H1   HT     0.417000        1.0079           0
   12564 WTD2 8869 TIP3 H2   HT     0.417000        1.0079           0
   12565 WTD2 8903 TIP3 OH2  OT    -0.834000       15.9994           0
   12566 WTD2 8903 TIP3 H1   HT     0.417000        1.0079           0
   12567 WTD2 8903 TIP3 H2   HT     0.417000        1.0079           0
   12568 WTD2 9226 TIP3 OH2  OT    -0.834000       15.9994           0
   12569 WTD2 9226 TIP3 H1   HT     0.417000        1.0079           0
   12570 WTD2 9226 TIP3 H2   HT     0.417000        1.0079           0
   12571 WTD2 9246 TIP3 OH2  OT    -0.834000       15.9994           0
   12572 WTD2 9246 TIP3 H1   HT     0.417000        1.0079           0
   12573 WTD2 9246 TIP3 H2   HT     0.417000        1.0079           0
   12574 WTD3 2    TIP3 OH2  OT    -0.834000       15.9994           0
   12575 WTD3 2    TIP3 H1   HT     0.417000        1.0079           0
   12576 WTD3 2    TIP3 H2   HT     0.417000        1.0079           0
   12577 WTD3 21   TIP3 OH2  OT    -0.834000       15.9994           0
   12578 WTD3 21   TIP3 H1   HT     0.417000        1.0079           0
   12579 WTD3 21   TIP3 H2   HT     0.417000        1.0079           0
   12580 WTD3 40   TIP3 OH2  OT    -0.834000       15.9994           0
   12581 WTD3 40   TIP3 H1   HT     0.417000        1.0079           0
   12582 WTD3 40   TIP3 H2   HT     0.417000        1.0079           0
   12583 WTD3 44   TIP3 OH2  OT    -0.834000       15.9994           0
   12584 WTD3 44   TIP3 H1   HT     0.417000        1.0079           0
   12585 WTD3 44   TIP3 H2   HT     0.417000        1.0079           0
   12586 WTD3 48   TIP3 OH2  OT    -0.834000       15.9994           0
   12587 WTD3 48   TIP3 H1   HT     0.417000        1.0079           0
   12588 WTD3 48   TIP3 H2   HT     0.417000        1.0079           0
   12589 WTD3 65   TIP3 OH2  OT    -0.834000       15.9994           0
   12590 WTD3 65   TIP3 H1   HT     0.417000        1.0079           0
   12591 WTD3 65   TIP3 H2   HT     0.417000        1.0079           0
   12592 WTD3 87   TIP3 OH2  OT    -0.834000       15.9994           0
   12593 WTD3 87   TIP3 H1   HT     0.417000        1.0079           0
   12594 WTD3 87   TIP3 H2   HT     0.417000        1.0079           0
   12595 WTD3 88   TIP3 OH2  OT    -0.834000       15.9994           0
   12596 WTD3 88   TIP3 H1   HT     0.417000        1.0079           0
   12597 WTD3 88   TIP3 H2   HT     0.417000        1.0079           0
   12598 WTD3 108  TIP3 OH2  OT    -0.834000       15.9994           0
   12599 WTD3 108  TIP3 H1   HT     0.417000        1.0079           0
   12600 WTD3 108  TIP3 H2   HT     0.417000        1.0079           0
   12601 WTD3 149  TIP3 OH2  OT    -0.834000       15.9994           0
   12602 WTD3 149  TIP3 H1   HT     0.417000        1.0079           0
   12603 WTD3 149  TIP3 H2   HT     0.417000        1.0079           0
   12604 WTD3 150  TIP3 OH2  OT    -0.834000       15.9994           0
   12605 WTD3 150  TIP3 H1   HT     0.417000        1.0079           0
   12606 WTD3 150  TIP3 H2   HT     0.417000        1.0079           0
   12607 WTD3 167  TIP3 OH2  OT    -0.834000       15.9994           0
   12608 WTD3 167  TIP3 H1   HT     0.417000        1.0079           0
   12609 WTD3 167  TIP3 H2   HT     0.417000        1.0079           0
   12610 WTD3 174  TIP3 OH2  OT    -0.834000       15.9994           0
   12611 WTD3 174  TIP3 H1   HT     0.417000        1.0079           0
   12612 WTD3 174  TIP3 H2   HT     0.417000        1.0079           0
   12613 WTD3 191  TIP3 OH2  OT    -0.834000       15.9994           0
   12614 WTD3 191  TIP3 H1   HT     0.417000        1.0079           0
   12615 WTD3 191  TIP3 H2   HT     0.417000        1.0079           0
   12616 WTD3 195  TIP3 OH2  OT    -0.834000       15.9994           0
   12617 WTD3 195  TIP3 H1   HT     0.417000        1.0079           0
   12618 WTD3 195  TIP3 H2   HT     0.417000        1.0079           0
   12619 WTD3 196  TIP3 OH2  OT    -0.834000       15.9994           0
   12620 WTD3 196  TIP3 H1   HT     0.417000        1.0079           0
   12621 WTD3 196  TIP3 H2   HT     0.417000        1.0079           0
   12622 WTD3 237  TIP3 OH2  OT    -0.834000       15.9994           0
   12623 WTD3 237  TIP3 H1   HT     0.417000        1.0079           0
   12624 WTD3 237  TIP3 H2   HT     0.417000        1.0079           0
   12625 WTD3 338  TIP3 OH2  OT    -0.834000       15.9994           0
   12626 WTD3 338  TIP3 H1   HT     0.417000        1.0079           0
   12627 WTD3 338  TIP3 H2   HT     0.417000        1.0079           0
   12628 WTD3 344  TIP3 OH2  OT    -0.834000       15.9994           0
   12629 WTD3 344  TIP3 H1   HT     0.417000        1.0079           0
   12630 WTD3 344  TIP3 H2   HT     0.417000        1.0079           0
   12631 WTD3 384  TIP3 OH2  OT    -0.834000       15.9994           0
   12632 WTD3 384  TIP3 H1   HT     0.417000        1.0079           0
   12633 WTD3 384  TIP3 H2   HT     0.417000        1.0079           0
   12634 WTD3 401  TIP3 OH2  OT    -0.834000       15.9994           0
   12635 WTD3 401  TIP3 H1   HT     0.417000        1.0079           0
   12636 WTD3 401  TIP3 H2   HT     0.417000        1.0079           0
   12637 WTD3 425  TIP3 OH2  OT    -0.834000       15.9994           0
   12638 WTD3 425  TIP3 H1   HT     0.417000        1.0079           0
   12639 WTD3 425  TIP3 H2   HT     0.417000        1.0079           0
   12640 WTD3 427  TIP3 OH2  OT    -0.834000       15.9994           0
   12641 WTD3 427  TIP3 H1   HT     0.417000        1.0079           0
   12642 WTD3 427  TIP3 H2   HT     0.417000        1.0079           0
   12643 WTD3 446  TIP3 OH2  OT    -0.834000       15.9994           0
   12644 WTD3 446  TIP3 H1   HT     0.417000        1.0079           0
   12645 WTD3 446  TIP3 H2   HT     0.417000        1.0079           0
   12646 WTD3 460  TIP3 OH2  OT    -0.834000       15.9994           0
   12647 WTD3 460  TIP3 H1   HT     0.417000        1.0079           0
   12648 WTD3 460  TIP3 H2   HT     0.417000        1.0079           0
   12649 WTD3 472  TIP3 OH2  OT    -0.834000       15.9994           0
   12650 WTD3 472  TIP3 H1   HT     0.417000        1.0079           0
   12651 WTD3 472  TIP3 H2   HT     0.417000        1.0079           0
   12652 WTD3 485  TIP3 OH2  OT    -0.834000       15.9994           0
   12653 WTD3 485  TIP3 H1   HT     0.417000        1.0079           0
   12654 WTD3 485  TIP3 H2   HT     0.417000        1.0079           0
   12655 WTD3 486  TIP3 OH2  OT    -0.834000       15.9994           0
   12656 WTD3 486  TIP3 H1   HT     0.417000        1.0079           0
   12657 WTD3 486  TIP3 H2   HT     0.417000        1.0079           0
   12658 WTD3 503  TIP3 OH2  OT    -0.834000       15.9994           0
   12659 WTD3 503  TIP3 H1   HT     0.417000        1.0079           0
   12660 WTD3 503  TIP3 H2   HT     0.417000        1.0079           0
   12661 WTD3 543  TIP3 OH2  OT    -0.834000       15.9994           0
   12662 WTD3 543  TIP3 H1   HT     0.417000        1.0079           0
   12663 WTD3 543  TIP3 H2   HT     0.417000        1.0079           0
   12664 WTD3 548  TIP3 OH2  OT    -0.834000       15.9994           0
   12665 WTD3 548  TIP3 H1   HT     0.417000        1.0079           0
   12666 WTD3 548  TIP3 H2   HT     0.417000        1.0079           0
   12667 WTD3 554  TIP3 OH2  OT    -0.834000       15.9994           0
   12668 WTD3 554  TIP3 H1   HT     0.417000        1.0079           0
   12669 WTD3 554  TIP3 H2   HT     0.417000        1.0079           0
   12670 WTD3 562  TIP3 OH2  OT    -0.834000       15.9994           0
   12671 WTD3 562  TIP3 H1   HT     0.417000        1.0079           0
   12672 WTD3 562  TIP3 H2   HT     0.417000        1.0079           0
   12673 WTD3 570  TIP3 OH2  OT    -0.834000       15.9994           0
   12674 WTD3 570  TIP3 H1   HT     0.417000        1.0079           0
   12675 WTD3 570  TIP3 H2   HT     0.417000        1.0079           0
   12676 WTD3 575  TIP3 OH2  OT    -0.834000       15.9994           0
   12677 WTD3 575  TIP3 H1   HT     0.417000        1.0079           0
   12678 WTD3 575  TIP3 H2   HT     0.417000        1.0079           0
   12679 WTD3 584  TIP3 OH2  OT    -0.834000       15.9994           0
   12680 WTD3 584  TIP3 H1   HT     0.417000        1.0079           0
   12681 WTD3 584  TIP3 H2   HT     0.417000        1.0079           0
   12682 WTD3 591  TIP3 OH2  OT    -0.834000       15.9994           0
   12683 WTD3 591  TIP3 H1   HT     0.417000        1.0079           0
   12684 WTD3 591  TIP3 H2   HT     0.417000        1.0079           0
   12685 WTD3 593  TIP3 OH2  OT    -0.834000       15.9994           0
   12686 WTD3 593  TIP3 H1   HT     0.417000        1.0079           0
   12687 WTD3 593  TIP3 H2   HT     0.417000        1.0079           0
   12688 WTD3 594  TIP3 OH2  OT    -0.834000       15.9994           0
   12689 WTD3 594  TIP3 H1   HT     0.417000        1.0079           0
   12690 WTD3 594  TIP3 H2   HT     0.417000        1.0079           0
   12691 WTD3 653  TIP3 OH2  OT    -0.834000       15.9994           0
   12692 WTD3 653  TIP3 H1   HT     0.417000        1.0079           0
   12693 WTD3 653  TIP3 H2   HT     0.417000        1.0079           0
   12694 WTD3 674  TIP3 OH2  OT    -0.834000       15.9994           0
   12695 WTD3 674  TIP3 H1   HT     0.417000        1.0079           0
   12696 WTD3 674  TIP3 H2   HT     0.417000        1.0079           0
   12697 WTD3 715  TIP3 OH2  OT    -0.834000       15.9994           0
   12698 WTD3 715  TIP3 H1   HT     0.417000        1.0079           0
   12699 WTD3 715  TIP3 H2   HT     0.417000        1.0079           0
   12700 WTD3 717  TIP3 OH2  OT    -0.834000       15.9994           0
   12701 WTD3 717  TIP3 H1   HT     0.417000        1.0079           0
   12702 WTD3 717  TIP3 H2   HT     0.417000        1.0079           0
   12703 WTD3 738  TIP3 OH2  OT    -0.834000       15.9994           0
   12704 WTD3 738  TIP3 H1   HT     0.417000        1.0079           0
   12705 WTD3 738  TIP3 H2   HT     0.417000        1.0079           0
   12706 WTD3 746  TIP3 OH2  OT    -0.834000       15.9994           0
   12707 WTD3 746  TIP3 H1   HT     0.417000        1.0079           0
   12708 WTD3 746  TIP3 H2   HT     0.417000        1.0079           0
   12709 WTD3 778  TIP3 OH2  OT    -0.834000       15.9994           0
   12710 WTD3 778  TIP3 H1   HT     0.417000        1.0079           0
   12711 WTD3 778  TIP3 H2   HT     0.417000        1.0079           0
   12712 WTD3 807  TIP3 OH2  OT    -0.834000       15.9994           0
   12713 WTD3 807  TIP3 H1   HT     0.417000        1.0079           0
   12714 WTD3 807  TIP3 H2   HT     0.417000        1.0079           0
   12715 WTD3 822  TIP3 OH2  OT    -0.834000       15.9994           0
   12716 WTD3 822  TIP3 H1   HT     0.417000        1.0079           0
   12717 WTD3 822  TIP3 H2   HT     0.417000        1.0079           0
   12718 WTD3 824  TIP3 OH2  OT    -0.834000       15.9994           0
   12719 WTD3 824  TIP3 H1   HT     0.417000        1.0079           0
   12720 WTD3 824  TIP3 H2   HT     0.417000        1.0079           0
   12721 WTD3 843  TIP3 OH2  OT    -0.834000       15.9994           0
   12722 WTD3 843  TIP3 H1   HT     0.417000        1.0079           0
   12723 WTD3 843  TIP3 H2   HT     0.417000        1.0079           0
   12724 WTD3 846  TIP3 OH2  OT    -0.834000       15.9994           0
   12725 WTD3 846  TIP3 H1   HT     0.417000        1.0079           0
   12726 WTD3 846  TIP3 H2   HT     0.417000        1.0079           0
   12727 WTD3 908  TIP3 OH2  OT    -0.834000       15.9994           0
   12728 WTD3 908  TIP3 H1   HT     0.417000        1.0079           0
   12729 WTD3 908  TIP3 H2   HT     0.417000        1.0079           0
   12730 WTD3 969  TIP3 OH2  OT    -0.834000       15.9994           0
   12731 WTD3 969  TIP3 H1   HT     0.417000        1.0079           0
   12732 WTD3 969  TIP3 H2   HT     0.417000        1.0079           0
   12733 WTD3 1011 TIP3 OH2  OT    -0.834000       15.9994           0
   12734 WTD3 1011 TIP3 H1   HT     0.417000        1.0079           0
   12735 WTD3 1011 TIP3 H2   HT     0.417000        1.0079           0
   12736 WTD3 1018 TIP3 OH2  OT    -0.834000       15.9994           0
   12737 WTD3 1018 TIP3 H1   HT     0.417000        1.0079           0
   12738 WTD3 1018 TIP3 H2   HT     0.417000        1.0079           0
   12739 WTD3 1076 TIP3 OH2  OT    -0.834000       15.9994           0
   12740 WTD3 1076 TIP3 H1   HT     0.417000        1.0079           0
   12741 WTD3 1076 TIP3 H2   HT     0.417000        1.0079           0
   12742 WTD3 1077 TIP3 OH2  OT    -0.834000       15.9994           0
   12743 WTD3 1077 TIP3 H1   HT     0.417000        1.0079           0
   12744 WTD3 1077 TIP3 H2   HT     0.417000        1.0079           0
   12745 WTD3 1098 TIP3 OH2  OT    -0.834000       15.9994           0
   12746 WTD3 1098 TIP3 H1   HT     0.417000        1.0079           0
   12747 WTD3 1098 TIP3 H2   HT     0.417000        1.0079           0
   12748 WTD3 1201 TIP3 OH2  OT    -0.834000       15.9994           0
   12749 WTD3 1201 TIP3 H1   HT     0.417000        1.0079           0
   12750 WTD3 1201 TIP3 H2   HT     0.417000        1.0079           0
   12751 WTD3 1240 TIP3 OH2  OT    -0.834000       15.9994           0
   12752 WTD3 1240 TIP3 H1   HT     0.417000        1.0079           0
   12753 WTD3 1240 TIP3 H2   HT     0.417000        1.0079           0
   12754 WTD3 1258 TIP3 OH2  OT    -0.834000       15.9994           0
   12755 WTD3 1258 TIP3 H1   HT     0.417000        1.0079           0
   12756 WTD3 1258 TIP3 H2   HT     0.417000        1.0079           0
   12757 WTD3 1281 TIP3 OH2  OT    -0.834000       15.9994           0
   12758 WTD3 1281 TIP3 H1   HT     0.417000        1.0079           0
   12759 WTD3 1281 TIP3 H2   HT     0.417000        1.0079           0
   12760 WTD3 1285 TIP3 OH2  OT    -0.834000       15.9994           0
   12761 WTD3 1285 TIP3 H1   HT     0.417000        1.0079           0
   12762 WTD3 1285 TIP3 H2   HT     0.417000        1.0079           0
   12763 WTD3 1301 TIP3 OH2  OT    -0.834000       15.9994           0
   12764 WTD3 1301 TIP3 H1   HT     0.417000        1.0079           0
   12765 WTD3 1301 TIP3 H2   HT     0.417000        1.0079           0
   12766 WTD3 1303 TIP3 OH2  OT    -0.834000       15.9994           0
   12767 WTD3 1303 TIP3 H1   HT     0.417000        1.0079           0
   12768 WTD3 1303 TIP3 H2   HT     0.417000        1.0079           0
   12769 WTD3 1328 TIP3 OH2  OT    -0.834000       15.9994           0
   12770 WTD3 1328 TIP3 H1   HT     0.417000        1.0079           0
   12771 WTD3 1328 TIP3 H2   HT     0.417000        1.0079           0
   12772 WTD3 1345 TIP3 OH2  OT    -0.834000       15.9994           0
   12773 WTD3 1345 TIP3 H1   HT     0.417000        1.0079           0
   12774 WTD3 1345 TIP3 H2   HT     0.417000        1.0079           0
   12775 WTD3 1370 TIP3 OH2  OT    -0.834000       15.9994           0
   12776 WTD3 1370 TIP3 H1   HT     0.417000        1.0079           0
   12777 WTD3 1370 TIP3 H2   HT     0.417000        1.0079           0
   12778 WTD3 1374 TIP3 OH2  OT    -0.834000       15.9994           0
   12779 WTD3 1374 TIP3 H1   HT     0.417000        1.0079           0
   12780 WTD3 1374 TIP3 H2   HT     0.417000        1.0079           0
   12781 WTD3 1387 TIP3 OH2  OT    -0.834000       15.9994           0
   12782 WTD3 1387 TIP3 H1   HT     0.417000        1.0079           0
   12783 WTD3 1387 TIP3 H2   HT     0.417000        1.0079           0
   12784 WTD3 1408 TIP3 OH2  OT    -0.834000       15.9994           0
   12785 WTD3 1408 TIP3 H1   HT     0.417000        1.0079           0
   12786 WTD3 1408 TIP3 H2   HT     0.417000        1.0079           0
   12787 WTD3 1429 TIP3 OH2  OT    -0.834000       15.9994           0
   12788 WTD3 1429 TIP3 H1   HT     0.417000        1.0079           0
   12789 WTD3 1429 TIP3 H2   HT     0.417000        1.0079           0
   12790 WTD3 1451 TIP3 OH2  OT    -0.834000       15.9994           0
   12791 WTD3 1451 TIP3 H1   HT     0.417000        1.0079           0
   12792 WTD3 1451 TIP3 H2   HT     0.417000        1.0079           0
   12793 WTD3 1466 TIP3 OH2  OT    -0.834000       15.9994           0
   12794 WTD3 1466 TIP3 H1   HT     0.417000        1.0079           0
   12795 WTD3 1466 TIP3 H2   HT     0.417000        1.0079           0
   12796 WTD3 1492 TIP3 OH2  OT    -0.834000       15.9994           0
   12797 WTD3 1492 TIP3 H1   HT     0.417000        1.0079           0
   12798 WTD3 1492 TIP3 H2   HT     0.417000        1.0079           0
   12799 WTD3 1514 TIP3 OH2  OT    -0.834000       15.9994           0
   12800 WTD3 1514 TIP3 H1   HT     0.417000        1.0079           0
   12801 WTD3 1514 TIP3 H2   HT     0.417000        1.0079           0
   12802 WTD3 1573 TIP3 OH2  OT    -0.834000       15.9994           0
   12803 WTD3 1573 TIP3 H1   HT     0.417000        1.0079           0
   12804 WTD3 1573 TIP3 H2   HT     0.417000        1.0079           0
   12805 WTD3 1599 TIP3 OH2  OT    -0.834000       15.9994           0
   12806 WTD3 1599 TIP3 H1   HT     0.417000        1.0079           0
   12807 WTD3 1599 TIP3 H2   HT     0.417000        1.0079           0
   12808 WTD3 1656 TIP3 OH2  OT    -0.834000       15.9994           0
   12809 WTD3 1656 TIP3 H1   HT     0.417000        1.0079           0
   12810 WTD3 1656 TIP3 H2   HT     0.417000        1.0079           0
   12811 WTD3 1725 TIP3 OH2  OT    -0.834000       15.9994           0
   12812 WTD3 1725 TIP3 H1   HT     0.417000        1.0079           0
   12813 WTD3 1725 TIP3 H2   HT     0.417000        1.0079           0
   12814 WTD3 1728 TIP3 OH2  OT    -0.834000       15.9994           0
   12815 WTD3 1728 TIP3 H1   HT     0.417000        1.0079           0
   12816 WTD3 1728 TIP3 H2   HT     0.417000        1.0079           0
   12817 WTD3 1751 TIP3 OH2  OT    -0.834000       15.9994           0
   12818 WTD3 1751 TIP3 H1   HT     0.417000        1.0079           0
   12819 WTD3 1751 TIP3 H2   HT     0.417000        1.0079           0
   12820 WTD3 1764 TIP3 OH2  OT    -0.834000       15.9994           0
   12821 WTD3 1764 TIP3 H1   HT     0.417000        1.0079           0
   12822 WTD3 1764 TIP3 H2   HT     0.417000        1.0079           0
   12823 WTD3 1771 TIP3 OH2  OT    -0.834000       15.9994           0
   12824 WTD3 1771 TIP3 H1   HT     0.417000        1.0079           0
   12825 WTD3 1771 TIP3 H2   HT     0.417000        1.0079           0
   12826 WTD3 1789 TIP3 OH2  OT    -0.834000       15.9994           0
   12827 WTD3 1789 TIP3 H1   HT     0.417000        1.0079           0
   12828 WTD3 1789 TIP3 H2   HT     0.417000        1.0079           0
   12829 WTD3 1849 TIP3 OH2  OT    -0.834000       15.9994           0
   12830 WTD3 1849 TIP3 H1   HT     0.417000        1.0079           0
   12831 WTD3 1849 TIP3 H2   HT     0.417000        1.0079           0
   12832 WTD3 1853 TIP3 OH2  OT    -0.834000       15.9994           0
   12833 WTD3 1853 TIP3 H1   HT     0.417000        1.0079           0
   12834 WTD3 1853 TIP3 H2   HT     0.417000        1.0079           0
   12835 WTD3 1892 TIP3 OH2  OT    -0.834000       15.9994           0
   12836 WTD3 1892 TIP3 H1   HT     0.417000        1.0079           0
   12837 WTD3 1892 TIP3 H2   HT     0.417000        1.0079           0
   12838 WTD3 1918 TIP3 OH2  OT    -0.834000       15.9994           0
   12839 WTD3 1918 TIP3 H1   HT     0.417000        1.0079           0
   12840 WTD3 1918 TIP3 H2   HT     0.417000        1.0079           0
   12841 WTD3 1978 TIP3 OH2  OT    -0.834000       15.9994           0
   12842 WTD3 1978 TIP3 H1   HT     0.417000        1.0079           0
   12843 WTD3 1978 TIP3 H2   HT     0.417000        1.0079           0
   12844 WTD3 2000 TIP3 OH2  OT    -0.834000       15.9994           0
   12845 WTD3 2000 TIP3 H1   HT     0.417000        1.0079           0
   12846 WTD3 2000 TIP3 H2   HT     0.417000        1.0079           0
   12847 WTD3 2022 TIP3 OH2  OT    -0.834000       15.9994           0
   12848 WTD3 2022 TIP3 H1   HT     0.417000        1.0079           0
   12849 WTD3 2022 TIP3 H2   HT     0.417000        1.0079           0
   12850 WTD3 2063 TIP3 OH2  OT    -0.834000       15.9994           0
   12851 WTD3 2063 TIP3 H1   HT     0.417000        1.0079           0
   12852 WTD3 2063 TIP3 H2   HT     0.417000        1.0079           0
   12853 WTD3 2183 TIP3 OH2  OT    -0.834000       15.9994           0
   12854 WTD3 2183 TIP3 H1   HT     0.417000        1.0079           0
   12855 WTD3 2183 TIP3 H2   HT     0.417000        1.0079           0
   12856 WTD3 2190 TIP3 OH2  OT    -0.834000       15.9994           0
   12857 WTD3 2190 TIP3 H1   HT     0.417000        1.0079           0
   12858 WTD3 2190 TIP3 H2   HT     0.417000        1.0079           0
   12859 WTD3 2270 TIP3 OH2  OT    -0.834000       15.9994           0
   12860 WTD3 2270 TIP3 H1   HT     0.417000        1.0079           0
   12861 WTD3 2270 TIP3 H2   HT     0.417000        1.0079           0
   12862 WTD3 2288 TIP3 OH2  OT    -0.834000       15.9994           0
   12863 WTD3 2288 TIP3 H1   HT     0.417000        1.0079           0
   12864 WTD3 2288 TIP3 H2   HT     0.417000        1.0079           0
   12865 WTD3 2290 TIP3 OH2  OT    -0.834000       15.9994           0
   12866 WTD3 2290 TIP3 H1   HT     0.417000        1.0079           0
   12867 WTD3 2290 TIP3 H2   HT     0.417000        1.0079           0
   12868 WTD3 2293 TIP3 OH2  OT    -0.834000       15.9994           0
   12869 WTD3 2293 TIP3 H1   HT     0.417000        1.0079           0
   12870 WTD3 2293 TIP3 H2   HT     0.417000        1.0079           0
   12871 WTD3 2357 TIP3 OH2  OT    -0.834000       15.9994           0
   12872 WTD3 2357 TIP3 H1   HT     0.417000        1.0079           0
   12873 WTD3 2357 TIP3 H2   HT     0.417000        1.0079           0
   12874 WTD3 2358 TIP3 OH2  OT    -0.834000       15.9994           0
   12875 WTD3 2358 TIP3 H1   HT     0.417000        1.0079           0
   12876 WTD3 2358 TIP3 H2   HT     0.417000        1.0079           0
   12877 WTD3 2395 TIP3 OH2  OT    -0.834000       15.9994           0
   12878 WTD3 2395 TIP3 H1   HT     0.417000        1.0079           0
   12879 WTD3 2395 TIP3 H2   HT     0.417000        1.0079           0
   12880 WTD3 2524 TIP3 OH2  OT    -0.834000       15.9994           0
   12881 WTD3 2524 TIP3 H1   HT     0.417000        1.0079           0
   12882 WTD3 2524 TIP3 H2   HT     0.417000        1.0079           0
   12883 WTD3 2525 TIP3 OH2  OT    -0.834000       15.9994           0
   12884 WTD3 2525 TIP3 H1   HT     0.417000        1.0079           0
   12885 WTD3 2525 TIP3 H2   HT     0.417000        1.0079           0
   12886 WTD3 2781 TIP3 OH2  OT    -0.834000       15.9994           0
   12887 WTD3 2781 TIP3 H1   HT     0.417000        1.0079           0
   12888 WTD3 2781 TIP3 H2   HT     0.417000        1.0079           0
   12889 WTD3 2903 TIP3 OH2  OT    -0.834000       15.9994           0
   12890 WTD3 2903 TIP3 H1   HT     0.417000        1.0079           0
   12891 WTD3 2903 TIP3 H2   HT     0.417000        1.0079           0
   12892 WTD3 3029 TIP3 OH2  OT    -0.834000       15.9994           0
   12893 WTD3 3029 TIP3 H1   HT     0.417000        1.0079           0
   12894 WTD3 3029 TIP3 H2   HT     0.417000        1.0079           0
   12895 WTD3 6240 TIP3 OH2  OT    -0.834000       15.9994           0
   12896 WTD3 6240 TIP3 H1   HT     0.417000        1.0079           0
   12897 WTD3 6240 TIP3 H2   HT     0.417000        1.0079           0
   12898 WTD3 6350 TIP3 OH2  OT    -0.834000       15.9994           0
   12899 WTD3 6350 TIP3 H1   HT     0.417000        1.0079           0
   12900 WTD3 6350 TIP3 H2   HT     0.417000        1.0079           0
   12901 WTD3 7510 TIP3 OH2  OT    -0.834000       15.9994           0
   12902 WTD3 7510 TIP3 H1   HT     0.417000        1.0079           0
   12903 WTD3 7510 TIP3 H2   HT     0.417000        1.0079           0
   12904 WTD3 7583 TIP3 OH2  OT    -0.834000       15.9994           0
   12905 WTD3 7583 TIP3 H1   HT     0.417000        1.0079           0
   12906 WTD3 7583 TIP3 H2   HT     0.417000        1.0079           0
   12907 WTD3 7603 TIP3 OH2  OT    -0.834000       15.9994           0
   12908 WTD3 7603 TIP3 H1   HT     0.417000        1.0079           0
   12909 WTD3 7603 TIP3 H2   HT     0.417000        1.0079           0
   12910 WTD3 7607 TIP3 OH2  OT    -0.834000       15.9994           0
   12911 WTD3 7607 TIP3 H1   HT     0.417000        1.0079           0
   12912 WTD3 7607 TIP3 H2   HT     0.417000        1.0079           0
   12913 WTD3 7630 TIP3 OH2  OT    -0.834000       15.9994           0
   12914 WTD3 7630 TIP3 H1   HT     0.417000        1.0079           0
   12915 WTD3 7630 TIP3 H2   HT     0.417000        1.0079           0
   12916 WTD3 7647 TIP3 OH2  OT    -0.834000       15.9994           0
   12917 WTD3 7647 TIP3 H1   HT     0.417000        1.0079           0
   12918 WTD3 7647 TIP3 H2   HT     0.417000        1.0079           0
   12919 WTD3 7650 TIP3 OH2  OT    -0.834000       15.9994           0
   12920 WTD3 7650 TIP3 H1   HT     0.417000        1.0079           0
   12921 WTD3 7650 TIP3 H2   HT     0.417000        1.0079           0
   12922 WTD3 7707 TIP3 OH2  OT    -0.834000       15.9994           0
   12923 WTD3 7707 TIP3 H1   HT     0.417000        1.0079           0
   12924 WTD3 7707 TIP3 H2   HT     0.417000        1.0079           0
   12925 WTD3 7748 TIP3 OH2  OT    -0.834000       15.9994           0
   12926 WTD3 7748 TIP3 H1   HT     0.417000        1.0079           0
   12927 WTD3 7748 TIP3 H2   HT     0.417000        1.0079           0
   12928 WTD3 7833 TIP3 OH2  OT    -0.834000       15.9994           0
   12929 WTD3 7833 TIP3 H1   HT     0.417000        1.0079           0
   12930 WTD3 7833 TIP3 H2   HT     0.417000        1.0079           0
   12931 WTD3 7959 TIP3 OH2  OT    -0.834000       15.9994           0
   12932 WTD3 7959 TIP3 H1   HT     0.417000        1.0079           0
   12933 WTD3 7959 TIP3 H2   HT     0.417000        1.0079           0
   12934 WTD3 7979 TIP3 OH2  OT    -0.834000       15.9994           0
   12935 WTD3 7979 TIP3 H1   HT     0.417000        1.0079           0
   12936 WTD3 7979 TIP3 H2   HT     0.417000        1.0079           0
   12937 WTD3 7985 TIP3 OH2  OT    -0.834000       15.9994           0
   12938 WTD3 7985 TIP3 H1   HT     0.417000        1.0079           0
   12939 WTD3 7985 TIP3 H2   HT     0.417000        1.0079           0
   12940 WTD3 8023 TIP3 OH2  OT    -0.834000       15.9994           0
   12941 WTD3 8023 TIP3 H1   HT     0.417000        1.0079           0
   12942 WTD3 8023 TIP3 H2   HT     0.417000        1.0079           0
   12943 WTD3 8024 TIP3 OH2  OT    -0.834000       15.9994           0
   12944 WTD3 8024 TIP3 H1   HT     0.417000        1.0079           0
   12945 WTD3 8024 TIP3 H2   HT     0.417000        1.0079           0
   12946 WTD3 8046 TIP3 OH2  OT    -0.834000       15.9994           0
   12947 WTD3 8046 TIP3 H1   HT     0.417000        1.0079           0
   12948 WTD3 8046 TIP3 H2   HT     0.417000        1.0079           0
   12949 WTD3 8064 TIP3 OH2  OT    -0.834000       15.9994           0
   12950 WTD3 8064 TIP3 H1   HT     0.417000        1.0079           0
   12951 WTD3 8064 TIP3 H2   HT     0.417000        1.0079           0
   12952 WTD3 8068 TIP3 OH2  OT    -0.834000       15.9994           0
   12953 WTD3 8068 TIP3 H1   HT     0.417000        1.0079           0
   12954 WTD3 8068 TIP3 H2   HT     0.417000        1.0079           0
   12955 WTD3 8136 TIP3 OH2  OT    -0.834000       15.9994           0
   12956 WTD3 8136 TIP3 H1   HT     0.417000        1.0079           0
   12957 WTD3 8136 TIP3 H2   HT     0.417000        1.0079           0
   12958 WTD3 8173 TIP3 OH2  OT    -0.834000       15.9994           0
   12959 WTD3 8173 TIP3 H1   HT     0.417000        1.0079           0
   12960 WTD3 8173 TIP3 H2   HT     0.417000        1.0079           0
   12961 WTD3 8174 TIP3 OH2  OT    -0.834000       15.9994           0
   12962 WTD3 8174 TIP3 H1   HT     0.417000        1.0079           0
   12963 WTD3 8174 TIP3 H2   HT     0.417000        1.0079           0
   12964 WTD3 8193 TIP3 OH2  OT    -0.834000       15.9994           0
   12965 WTD3 8193 TIP3 H1   HT     0.417000        1.0079           0
   12966 WTD3 8193 TIP3 H2   HT     0.417000        1.0079           0
   12967 WTD3 8278 TIP3 OH2  OT    -0.834000       15.9994           0
   12968 WTD3 8278 TIP3 H1   HT     0.417000        1.0079           0
   12969 WTD3 8278 TIP3 H2   HT     0.417000        1.0079           0
   12970 WTD3 8403 TIP3 OH2  OT    -0.834000       15.9994           0
   12971 WTD3 8403 TIP3 H1   HT     0.417000        1.0079           0
   12972 WTD3 8403 TIP3 H2   HT     0.417000        1.0079           0
   12973 WTD3 8425 TIP3 OH2  OT    -0.834000       15.9994           0
   12974 WTD3 8425 TIP3 H1   HT     0.417000        1.0079           0
   12975 WTD3 8425 TIP3 H2   HT     0.417000        1.0079           0
   12976 WTD3 8466 TIP3 OH2  OT    -0.834000       15.9994           0
   12977 WTD3 8466 TIP3 H1   HT     0.417000        1.0079           0
   12978 WTD3 8466 TIP3 H2   HT     0.417000        1.0079           0
   12979 WTD3 8468 TIP3 OH2  OT    -0.834000       15.9994           0
   12980 WTD3 8468 TIP3 H1   HT     0.417000        1.0079           0
   12981 WTD3 8468 TIP3 H2   HT     0.417000        1.0079           0
   12982 WTD3 8488 TIP3 OH2  OT    -0.834000       15.9994           0
   12983 WTD3 8488 TIP3 H1   HT     0.417000        1.0079           0
   12984 WTD3 8488 TIP3 H2   HT     0.417000        1.0079           0
   12985 WTD3 8528 TIP3 OH2  OT    -0.834000       15.9994           0
   12986 WTD3 8528 TIP3 H1   HT     0.417000        1.0079           0
   12987 WTD3 8528 TIP3 H2   HT     0.417000        1.0079           0
   12988 WTD3 8534 TIP3 OH2  OT    -0.834000       15.9994           0
   12989 WTD3 8534 TIP3 H1   HT     0.417000        1.0079           0
   12990 WTD3 8534 TIP3 H2   HT     0.417000        1.0079           0
   12991 WTD3 8551 TIP3 OH2  OT    -0.834000       15.9994           0
   12992 WTD3 8551 TIP3 H1   HT     0.417000        1.0079           0
   12993 WTD3 8551 TIP3 H2   HT     0.417000        1.0079           0
   12994 WTD3 8653 TIP3 OH2  OT    -0.834000       15.9994           0
   12995 WTD3 8653 TIP3 H1   HT     0.417000        1.0079           0
   12996 WTD3 8653 TIP3 H2   HT     0.417000        1.0079           0
   12997 WTD3 8675 TIP3 OH2  OT    -0.834000       15.9994           0
   12998 WTD3 8675 TIP3 H1   HT     0.417000        1.0079           0
   12999 WTD3 8675 TIP3 H2   HT     0.417000        1.0079           0
   13000 WTD3 8679 TIP3 OH2  OT    -0.834000       15.9994           0
   13001 WTD3 8679 TIP3 H1   HT     0.417000        1.0079           0
   13002 WTD3 8679 TIP3 H2   HT     0.417000        1.0079           0
   13003 WTD3 8691 TIP3 OH2  OT    -0.834000       15.9994           0
   13004 WTD3 8691 TIP3 H1   HT     0.417000        1.0079           0
   13005 WTD3 8691 TIP3 H2   HT     0.417000        1.0079           0
   13006 WTD3 8695 TIP3 OH2  OT    -0.834000       15.9994           0
   13007 WTD3 8695 TIP3 H1   HT     0.417000        1.0079           0
   13008 WTD3 8695 TIP3 H2   HT     0.417000        1.0079           0
   13009 WTD3 8699 TIP3 OH2  OT    -0.834000       15.9994           0
   13010 WTD3 8699 TIP3 H1   HT     0.417000        1.0079           0
   13011 WTD3 8699 TIP3 H2   HT     0.417000        1.0079           0
   13012 WTD3 8722 TIP3 OH2  OT    -0.834000       15.9994           0
   13013 WTD3 8722 TIP3 H1   HT     0.417000        1.0079           0
   13014 WTD3 8722 TIP3 H2   HT     0.417000        1.0079           0
   13015 WTD3 8780 TIP3 OH2  OT    -0.834000       15.9994           0
   13016 WTD3 8780 TIP3 H1   HT     0.417000        1.0079           0
   13017 WTD3 8780 TIP3 H2   HT     0.417000        1.0079           0
   13018 WTD3 8800 TIP3 OH2  OT    -0.834000       15.9994           0
   13019 WTD3 8800 TIP3 H1   HT     0.417000        1.0079           0
   13020 WTD3 8800 TIP3 H2   HT     0.417000        1.0079           0
   13021 WTD3 8822 TIP3 OH2  OT    -0.834000       15.9994           0
   13022 WTD3 8822 TIP3 H1   HT     0.417000        1.0079           0
   13023 WTD3 8822 TIP3 H2   HT     0.417000        1.0079           0
   13024 WTD3 8829 TIP3 OH2  OT    -0.834000       15.9994           0
   13025 WTD3 8829 TIP3 H1   HT     0.417000        1.0079           0
   13026 WTD3 8829 TIP3 H2   HT     0.417000        1.0079           0
   13027 WTD3 8845 TIP3 OH2  OT    -0.834000       15.9994           0
   13028 WTD3 8845 TIP3 H1   HT     0.417000        1.0079           0
   13029 WTD3 8845 TIP3 H2   HT     0.417000        1.0079           0
   13030 WTD3 8869 TIP3 OH2  OT    -0.834000       15.9994           0
   13031 WTD3 8869 TIP3 H1   HT     0.417000        1.0079           0
   13032 WTD3 8869 TIP3 H2   HT     0.417000        1.0079           0
   13033 WTD3 8927 TIP3 OH2  OT    -0.834000       15.9994           0
   13034 WTD3 8927 TIP3 H1   HT     0.417000        1.0079           0
   13035 WTD3 8927 TIP3 H2   HT     0.417000        1.0079           0
   13036 WTD3 8935 TIP3 OH2  OT    -0.834000       15.9994           0
   13037 WTD3 8935 TIP3 H1   HT     0.417000        1.0079           0
   13038 WTD3 8935 TIP3 H2   HT     0.417000        1.0079           0
   13039 WTD3 8973 TIP3 OH2  OT    -0.834000       15.9994           0
   13040 WTD3 8973 TIP3 H1   HT     0.417000        1.0079           0
   13041 WTD3 8973 TIP3 H2   HT     0.417000        1.0079           0
   13042 WTD3 8977 TIP3 OH2  OT    -0.834000       15.9994           0
   13043 WTD3 8977 TIP3 H1   HT     0.417000        1.0079           0
   13044 WTD3 8977 TIP3 H2   HT     0.417000        1.0079           0
   13045 WTD3 8988 TIP3 OH2  OT    -0.834000       15.9994           0
   13046 WTD3 8988 TIP3 H1   HT     0.417000        1.0079           0
   13047 WTD3 8988 TIP3 H2   HT     0.417000        1.0079           0
   13048 WTD3 9035 TIP3 OH2  OT    -0.834000       15.9994           0
   13049 WTD3 9035 TIP3 H1   HT     0.417000        1.0079           0
   13050 WTD3 9035 TIP3 H2   HT     0.417000        1.0079           0
   13051 WTD3 9047 TIP3 OH2  OT    -0.834000       15.9994           0
   13052 WTD3 9047 TIP3 H1   HT     0.417000        1.0079           0
   13053 WTD3 9047 TIP3 H2   HT     0.417000        1.0079           0
   13054 WTD3 9055 TIP3 OH2  OT    -0.834000       15.9994           0
   13055 WTD3 9055 TIP3 H1   HT     0.417000        1.0079           0
   13056 WTD3 9055 TIP3 H2   HT     0.417000        1.0079           0
   13057 WTD3 9073 TIP3 OH2  OT    -0.834000       15.9994           0
   13058 WTD3 9073 TIP3 H1   HT     0.417000        1.0079           0
   13059 WTD3 9073 TIP3 H2   HT     0.417000        1.0079           0
   13060 WTD3 9096 TIP3 OH2  OT    -0.834000       15.9994           0
   13061 WTD3 9096 TIP3 H1   HT     0.417000        1.0079           0
   13062 WTD3 9096 TIP3 H2   HT     0.417000        1.0079           0
   13063 WTD3 9097 TIP3 OH2  OT    -0.834000       15.9994           0
   13064 WTD3 9097 TIP3 H1   HT     0.417000        1.0079           0
   13065 WTD3 9097 TIP3 H2   HT     0.417000        1.0079           0
   13066 WTD3 9116 TIP3 OH2  OT    -0.834000       15.9994           0
   13067 WTD3 9116 TIP3 H1   HT     0.417000        1.0079           0
   13068 WTD3 9116 TIP3 H2   HT     0.417000        1.0079           0
   13069 WTD3 9157 TIP3 OH2  OT    -0.834000       15.9994           0
   13070 WTD3 9157 TIP3 H1   HT     0.417000        1.0079           0
   13071 WTD3 9157 TIP3 H2   HT     0.417000        1.0079           0
   13072 WTD3 9158 TIP3 OH2  OT    -0.834000       15.9994           0
   13073 WTD3 9158 TIP3 H1   HT     0.417000        1.0079           0
   13074 WTD3 9158 TIP3 H2   HT     0.417000        1.0079           0
   13075 WTD3 9161 TIP3 OH2  OT    -0.834000       15.9994           0
   13076 WTD3 9161 TIP3 H1   HT     0.417000        1.0079           0
   13077 WTD3 9161 TIP3 H2   HT     0.417000        1.0079           0
   13078 WTD3 9198 TIP3 OH2  OT    -0.834000       15.9994           0
   13079 WTD3 9198 TIP3 H1   HT     0.417000        1.0079           0
   13080 WTD3 9198 TIP3 H2   HT     0.417000        1.0079           0
   13081 WTD3 9223 TIP3 OH2  OT    -0.834000       15.9994           0
   13082 WTD3 9223 TIP3 H1   HT     0.417000        1.0079           0
   13083 WTD3 9223 TIP3 H2   HT     0.417000        1.0079           0
   13084 WTD3 9225 TIP3 OH2  OT    -0.834000       15.9994           0
   13085 WTD3 9225 TIP3 H1   HT     0.417000        1.0079           0
   13086 WTD3 9225 TIP3 H2   HT     0.417000        1.0079           0
   13087 WTD3 9227 TIP3 OH2  OT    -0.834000       15.9994           0
   13088 WTD3 9227 TIP3 H1   HT     0.417000        1.0079           0
   13089 WTD3 9227 TIP3 H2   HT     0.417000        1.0079           0
   13090 WTD3 9259 TIP3 OH2  OT    -0.834000       15.9994           0
   13091 WTD3 9259 TIP3 H1   HT     0.417000        1.0079           0
   13092 WTD3 9259 TIP3 H2   HT     0.417000        1.0079           0
   13093 WTD4 486  TIP3 OH2  OT    -0.834000       15.9994           0
   13094 WTD4 486  TIP3 H1   HT     0.417000        1.0079           0
   13095 WTD4 486  TIP3 H2   HT     0.417000        1.0079           0
   13096 WTD4 822  TIP3 OH2  OT    -0.834000       15.9994           0
   13097 WTD4 822  TIP3 H1   HT     0.417000        1.0079           0
   13098 WTD4 822  TIP3 H2   HT     0.417000        1.0079           0
   13099 WTD4 993  TIP3 OH2  OT    -0.834000       15.9994           0
   13100 WTD4 993  TIP3 H1   HT     0.417000        1.0079           0
   13101 WTD4 993  TIP3 H2   HT     0.417000        1.0079           0
   13102 WTD4 1301 TIP3 OH2  OT    -0.834000       15.9994           0
   13103 WTD4 1301 TIP3 H1   HT     0.417000        1.0079           0
   13104 WTD4 1301 TIP3 H2   HT     0.417000        1.0079           0
   13105 WTD4 1328 TIP3 OH2  OT    -0.834000       15.9994           0
   13106 WTD4 1328 TIP3 H1   HT     0.417000        1.0079           0
   13107 WTD4 1328 TIP3 H2   HT     0.417000        1.0079           0
   13108 WTD4 1370 TIP3 OH2  OT    -0.834000       15.9994           0
   13109 WTD4 1370 TIP3 H1   HT     0.417000        1.0079           0
   13110 WTD4 1370 TIP3 H2   HT     0.417000        1.0079           0
   13111 WTD4 1725 TIP3 OH2  OT    -0.834000       15.9994           0
   13112 WTD4 1725 TIP3 H1   HT     0.417000        1.0079           0
   13113 WTD4 1725 TIP3 H2   HT     0.417000        1.0079           0
   13114 WTD4 1764 TIP3 OH2  OT    -0.834000       15.9994           0
   13115 WTD4 1764 TIP3 H1   HT     0.417000        1.0079           0
   13116 WTD4 1764 TIP3 H2   HT     0.417000        1.0079           0
   13117 WTD4 1771 TIP3 OH2  OT    -0.834000       15.9994           0
   13118 WTD4 1771 TIP3 H1   HT     0.417000        1.0079           0
   13119 WTD4 1771 TIP3 H2   HT     0.417000        1.0079           0
   13120 WTD4 6240 TIP3 OH2  OT    -0.834000       15.9994           0
   13121 WTD4 6240 TIP3 H1   HT     0.417000        1.0079           0
   13122 WTD4 6240 TIP3 H2   HT     0.417000        1.0079           0
   13123 WTD4 7707 TIP3 OH2  OT    -0.834000       15.9994           0
   13124 WTD4 7707 TIP3 H1   HT     0.417000        1.0079           0
   13125 WTD4 7707 TIP3 H2   HT     0.417000        1.0079           0
   13126 WTD4 8425 TIP3 OH2  OT    -0.834000       15.9994           0
   13127 WTD4 8425 TIP3 H1   HT     0.417000        1.0079           0
   13128 WTD4 8425 TIP3 H2   HT     0.417000        1.0079           0
   13129 WTD4 8869 TIP3 OH2  OT    -0.834000       15.9994           0
   13130 WTD4 8869 TIP3 H1   HT     0.417000        1.0079           0
   13131 WTD4 8869 TIP3 H2   HT     0.417000        1.0079           0
   13132 O1   1    DMPC N    NTL   -0.600000       14.0067           0
   13133 O1   1    DMPC C13  CTL5  -0.350000       12.0107           0
   13134 O1   1    DMPC H13A HL     0.250000        1.0079           0
   13135 O1   1    DMPC H13B HL     0.250000        1.0079           0
   13136 O1   1    DMPC H13C HL     0.250000        1.0079           0
   13137 O1   1    DMPC C14  CTL5  -0.350000       12.0107           0
   13138 O1   1    DMPC H14A HL     0.250000        1.0079           0
   13139 O1   1    DMPC H14B HL     0.250000        1.0079           0
   13140 O1   1    DMPC H14C HL     0.250000        1.0079           0
   13141 O1   1    DMPC C15  CTL5  -0.350000       12.0107           0
   13142 O1   1    DMPC H15A HL     0.250000        1.0079           0
   13143 O1   1    DMPC H15B HL     0.250000        1.0079           0
   13144 O1   1    DMPC H15C HL     0.250000        1.0079           0
   13145 O1   1    DMPC C12  CTL2  -0.100000       12.0107           0
   13146 O1   1    DMPC H12A HL     0.250000        1.0079           0
   13147 O1   1    DMPC H12B HL     0.250000        1.0079           0
   13148 O1   1    DMPC C11  CTL2  -0.080000       12.0107           0
   13149 O1   1    DMPC H11A HAL2   0.090000        1.0079           0
   13150 O1   1    DMPC H11B HAL2   0.090000        1.0079           0
   13151 O1   1    DMPC P    PL     1.500000       30.9738           0
   13152 O1   1    DMPC O13  O2L   -0.780000       15.9994           0
   13153 O1   1    DMPC O14  O2L   -0.780000       15.9994           0
   13154 O1   1    DMPC O11  OSLP  -0.570000       15.9994           0
   13155 O1   1    DMPC O12  OSLP  -0.570000       15.9994           0
   13156 O1   1    DMPC C1   CTL2  -0.080000       12.0107           0
   13157 O1   1    DMPC HA   HAL2   0.090000        1.0079           0
   13158 O1   1    DMPC HB   HAL2   0.090000        1.0079           0
   13159 O1   1    DMPC C2   CTL1   0.170000       12.0107           0
   13160 O1   1    DMPC HS   HAL1   0.090000        1.0079           0
   13161 O1   1    DMPC O21  OSL   -0.490000       15.9994           0
   13162 O1   1    DMPC C21  CL     0.900000       12.0107           0
   13163 O1   1    DMPC O22  OBL   -0.630000       15.9994           0
   13164 O1   1    DMPC C22  CTL2  -0.220000       12.0107           0
   13165 O1   1    DMPC H2R  HAL2   0.090000        1.0079           0
   13166 O1   1    DMPC H2S  HAL2   0.090000        1.0079           0
   13167 O1   1    DMPC C3   CTL2   0.080000       12.0107           0
   13168 O1   1    DMPC HX   HAL2   0.090000        1.0079           0
   13169 O1   1    DMPC HY   HAL2   0.090000        1.0079           0
   13170 O1   1    DMPC O31  OSL   -0.490000       15.9994           0
   13171 O1   1    DMPC C31  CL     0.900000       12.0107           0
   13172 O1   1    DMPC O32  OBL   -0.630000       15.9994           0
   13173 O1   1    DMPC C32  CTL2  -0.220000       12.0107           0
   13174 O1   1    DMPC H2X  HAL2   0.090000        1.0079           0
   13175 O1   1    DMPC H2Y  HAL2   0.090000        1.0079           0
   13176 O1   1    DMPC C23  CTL2  -0.180000       12.0107           0
   13177 O1   1    DMPC H3R  HAL2   0.090000        1.0079           0
   13178 O1   1    DMPC H3S  HAL2   0.090000        1.0079           0
   13179 O1   1    DMPC C24  CTL2  -0.180000       12.0107           0
   13180 O1   1    DMPC H4R  HAL2   0.090000        1.0079           0
   13181 O1   1    DMPC H4S  HAL2   0.090000        1.0079           0
   13182 O1   1    DMPC C25  CTL2  -0.180000       12.0107           0
   13183 O1   1    DMPC H5R  HAL2   0.090000        1.0079           0
   13184 O1   1    DMPC H5S  HAL2   0.090000        1.0079           0
   13185 O1   1    DMPC C26  CTL2  -0.180000       12.0107           0
   13186 O1   1    DMPC H6R  HAL2   0.090000        1.0079           0
   13187 O1   1    DMPC H6S  HAL2   0.090000        1.0079           0
   13188 O1   1    DMPC C27  CTL2  -0.180000       12.0107           0
   13189 O1   1    DMPC H7R  HAL2   0.090000        1.0079           0
   13190 O1   1    DMPC H7S  HAL2   0.090000        1.0079           0
   13191 O1   1    DMPC C28  CTL2  -0.180000       12.0107           0
   13192 O1   1    DMPC H8R  HAL2   0.090000        1.0079           0
   13193 O1   1    DMPC H8S  HAL2   0.090000        1.0079           0
   13194 O1   1    DMPC C29  CTL2  -0.180000       12.0107           0
   13195 O1   1    DMPC H9R  HAL2   0.090000        1.0079           0
   13196 O1   1    DMPC H9S  HAL2   0.090000        1.0079           0
   13197 O1   1    DMPC C210 CTL2  -0.180000       12.0107           0
   13198 O1   1    DMPC H10R HAL2   0.090000        1.0079           0
   13199 O1   1    DMPC H10S HAL2   0.090000        1.0079           0
   13200 O1   1    DMPC C211 CTL2  -0.180000       12.0107           0
   13201 O1   1    DMPC H11R HAL2   0.090000        1.0079           0
   13202 O1   1    DMPC H11S HAL2   0.090000        1.0079           0
   13203 O1   1    DMPC C212 CTL2  -0.180000       12.0107           0
   13204 O1   1    DMPC H12R HAL2   0.090000        1.0079           0
   13205 O1   1    DMPC H12S HAL2   0.090000        1.0079           0
   13206 O1   1    DMPC C213 CTL2  -0.180000       12.0107           0
   13207 O1   1    DMPC H13R HAL2   0.090000        1.0079           0
   13208 O1   1    DMPC H13S HAL2   0.090000        1.0079           0
   13209 O1   1    DMPC C214 CTL3  -0.270000       12.0107           0
   13210 O1   1    DMPC H14R HAL3   0.090000        1.0079           0
   13211 O1   1    DMPC H14S HAL3   0.090000        1.0079           0
   13212 O1   1    DMPC H14T HAL3   0.090000        1.0079           0
   13213 O1   1    DMPC C33  CTL2  -0.180000       12.0107           0
   13214 O1   1    DMPC H3X  HAL2   0.090000        1.0079           0
   13215 O1   1    DMPC H3Y  HAL2   0.090000        1.0079           0
   13216 O1   1    DMPC C34  CTL2  -0.180000       12.0107           0
   13217 O1   1    DMPC H4X  HAL2   0.090000        1.0079           0
   13218 O1   1    DMPC H4Y  HAL2   0.090000        1.0079           0
   13219 O1   1    DMPC C35  CTL2  -0.180000       12.0107           0
   13220 O1   1    DMPC H5X  HAL2   0.090000        1.0079           0
   13221 O1   1    DMPC H5Y  HAL2   0.090000        1.0079           0
   13222 O1   1    DMPC C36  CTL2  -0.180000       12.0107           0
   13223 O1   1    DMPC H6X  HAL2   0.090000        1.0079           0
   13224 O1   1    DMPC H6Y  HAL2   0.090000        1.0079           0
   13225 O1   1    DMPC C37  CTL2  -0.180000       12.0107           0
   13226 O1   1    DMPC H7X  HAL2   0.090000        1.0079           0
   13227 O1   1    DMPC H7Y  HAL2   0.090000        1.0079           0
   13228 O1   1    DMPC C38  CTL2  -0.180000       12.0107           0
   13229 O1   1    DMPC H8X  HAL2   0.090000        1.0079           0
   13230 O1   1    DMPC H8Y  HAL2   0.090000        1.0079           0
   13231 O1   1    DMPC C39  CTL2  -0.180000       12.0107           0
   13232 O1   1    DMPC H9X  HAL2   0.090000        1.0079           0
   13233 O1   1    DMPC H9Y  HAL2   0.090000        1.0079           0
   13234 O1   1    DMPC C310 CTL2  -0.180000       12.0107           0
   13235 O1   1    DMPC H10X HAL2   0.090000        1.0079           0
   13236 O1   1    DMPC H10Y HAL2   0.090000        1.0079           0
   13237 O1   1    DMPC C311 CTL2  -0.180000       12.0107           0
   13238 O1   1    DMPC H11X HAL2   0.090000        1.0079           0
   13239 O1   1    DMPC H11Y HAL2   0.090000        1.0079           0
   13240 O1   1    DMPC C312 CTL2  -0.180000       12.0107           0
   13241 O1   1    DMPC H12X HAL2   0.090000        1.0079           0
   13242 O1   1    DMPC H12Y HAL2   0.090000        1.0079           0
   13243 O1   1    DMPC C313 CTL2  -0.180000       12.0107           0
   13244 O1   1    DMPC H13X HAL2   0.090000        1.0079           0
   13245 O1   1    DMPC H13Y HAL2   0.090000        1.0079           0
   13246 O1   1    DMPC C314 CTL3  -0.270000       12.0107           0
   13247 O1   1    DMPC H14X HAL3   0.090000        1.0079           0
   13248 O1   1    DMPC H14Y HAL3   0.090000        1.0079           0
   13249 O1   1    DMPC H14Z HAL3   0.090000        1.0079           0
   13250 O1   2    DMPC N    NTL   -0.600000       14.0067           0
   13251 O1   2    DMPC C13  CTL5  -0.350000       12.0107           0
   13252 O1   2    DMPC H13A HL     0.250000        1.0079           0
   13253 O1   2    DMPC H13B HL     0.250000        1.0079           0
   13254 O1   2    DMPC H13C HL     0.250000        1.0079           0
   13255 O1   2    DMPC C14  CTL5  -0.350000       12.0107           0
   13256 O1   2    DMPC H14A HL     0.250000        1.0079           0
   13257 O1   2    DMPC H14B HL     0.250000        1.0079           0
   13258 O1   2    DMPC H14C HL     0.250000        1.0079           0
   13259 O1   2    DMPC C15  CTL5  -0.350000       12.0107           0
   13260 O1   2    DMPC H15A HL     0.250000        1.0079           0
   13261 O1   2    DMPC H15B HL     0.250000        1.0079           0
   13262 O1   2    DMPC H15C HL     0.250000        1.0079           0
   13263 O1   2    DMPC C12  CTL2  -0.100000       12.0107           0
   13264 O1   2    DMPC H12A HL     0.250000        1.0079           0
   13265 O1   2    DMPC H12B HL     0.250000        1.0079           0
   13266 O1   2    DMPC C11  CTL2  -0.080000       12.0107           0
   13267 O1   2    DMPC H11A HAL2   0.090000        1.0079           0
   13268 O1   2    DMPC H11B HAL2   0.090000        1.0079           0
   13269 O1   2    DMPC P    PL     1.500000       30.9738           0
   13270 O1   2    DMPC O13  O2L   -0.780000       15.9994           0
   13271 O1   2    DMPC O14  O2L   -0.780000       15.9994           0
   13272 O1   2    DMPC O11  OSLP  -0.570000       15.9994           0
   13273 O1   2    DMPC O12  OSLP  -0.570000       15.9994           0
   13274 O1   2    DMPC C1   CTL2  -0.080000       12.0107           0
   13275 O1   2    DMPC HA   HAL2   0.090000        1.0079           0
   13276 O1   2    DMPC HB   HAL2   0.090000        1.0079           0
   13277 O1   2    DMPC C2   CTL1   0.170000       12.0107           0
   13278 O1   2    DMPC HS   HAL1   0.090000        1.0079           0
   13279 O1   2    DMPC O21  OSL   -0.490000       15.9994           0
   13280 O1   2    DMPC C21  CL     0.900000       12.0107           0
   13281 O1   2    DMPC O22  OBL   -0.630000       15.9994           0
   13282 O1   2    DMPC C22  CTL2  -0.220000       12.0107           0
   13283 O1   2    DMPC H2R  HAL2   0.090000        1.0079           0
   13284 O1   2    DMPC H2S  HAL2   0.090000        1.0079           0
   13285 O1   2    DMPC C3   CTL2   0.080000       12.0107           0
   13286 O1   2    DMPC HX   HAL2   0.090000        1.0079           0
   13287 O1   2    DMPC HY   HAL2   0.090000        1.0079           0
   13288 O1   2    DMPC O31  OSL   -0.490000       15.9994           0
   13289 O1   2    DMPC C31  CL     0.900000       12.0107           0
   13290 O1   2    DMPC O32  OBL   -0.630000       15.9994           0
   13291 O1   2    DMPC C32  CTL2  -0.220000       12.0107           0
   13292 O1   2    DMPC H2X  HAL2   0.090000        1.0079           0
   13293 O1   2    DMPC H2Y  HAL2   0.090000        1.0079           0
   13294 O1   2    DMPC C23  CTL2  -0.180000       12.0107           0
   13295 O1   2    DMPC H3R  HAL2   0.090000        1.0079           0
   13296 O1   2    DMPC H3S  HAL2   0.090000        1.0079           0
   13297 O1   2    DMPC C24  CTL2  -0.180000       12.0107           0
   13298 O1   2    DMPC H4R  HAL2   0.090000        1.0079           0
   13299 O1   2    DMPC H4S  HAL2   0.090000        1.0079           0
   13300 O1   2    DMPC C25  CTL2  -0.180000       12.0107           0
   13301 O1   2    DMPC H5R  HAL2   0.090000        1.0079           0
   13302 O1   2    DMPC H5S  HAL2   0.090000        1.0079           0
   13303 O1   2    DMPC C26  CTL2  -0.180000       12.0107           0
   13304 O1   2    DMPC H6R  HAL2   0.090000        1.0079           0
   13305 O1   2    DMPC H6S  HAL2   0.090000        1.0079           0
   13306 O1   2    DMPC C27  CTL2  -0.180000       12.0107           0
   13307 O1   2    DMPC H7R  HAL2   0.090000        1.0079           0
   13308 O1   2    DMPC H7S  HAL2   0.090000        1.0079           0
   13309 O1   2    DMPC C28  CTL2  -0.180000       12.0107           0
   13310 O1   2    DMPC H8R  HAL2   0.090000        1.0079           0
   13311 O1   2    DMPC H8S  HAL2   0.090000        1.0079           0
   13312 O1   2    DMPC C29  CTL2  -0.180000       12.0107           0
   13313 O1   2    DMPC H9R  HAL2   0.090000        1.0079           0
   13314 O1   2    DMPC H9S  HAL2   0.090000        1.0079           0
   13315 O1   2    DMPC C210 CTL2  -0.180000       12.0107           0
   13316 O1   2    DMPC H10R HAL2   0.090000        1.0079           0
   13317 O1   2    DMPC H10S HAL2   0.090000        1.0079           0
   13318 O1   2    DMPC C211 CTL2  -0.180000       12.0107           0
   13319 O1   2    DMPC H11R HAL2   0.090000        1.0079           0
   13320 O1   2    DMPC H11S HAL2   0.090000        1.0079           0
   13321 O1   2    DMPC C212 CTL2  -0.180000       12.0107           0
   13322 O1   2    DMPC H12R HAL2   0.090000        1.0079           0
   13323 O1   2    DMPC H12S HAL2   0.090000        1.0079           0
   13324 O1   2    DMPC C213 CTL2  -0.180000       12.0107           0
   13325 O1   2    DMPC H13R HAL2   0.090000        1.0079           0
   13326 O1   2    DMPC H13S HAL2   0.090000        1.0079           0
   13327 O1   2    DMPC C214 CTL3  -0.270000       12.0107           0
   13328 O1   2    DMPC H14R HAL3   0.090000        1.0079           0
   13329 O1   2    DMPC H14S HAL3   0.090000        1.0079           0
   13330 O1   2    DMPC H14T HAL3   0.090000        1.0079           0
   13331 O1   2    DMPC C33  CTL2  -0.180000       12.0107           0
   13332 O1   2    DMPC H3X  HAL2   0.090000        1.0079           0
   13333 O1   2    DMPC H3Y  HAL2   0.090000        1.0079           0
   13334 O1   2    DMPC C34  CTL2  -0.180000       12.0107           0
   13335 O1   2    DMPC H4X  HAL2   0.090000        1.0079           0
   13336 O1   2    DMPC H4Y  HAL2   0.090000        1.0079           0
   13337 O1   2    DMPC C35  CTL2  -0.180000       12.0107           0
   13338 O1   2    DMPC H5X  HAL2   0.090000        1.0079           0
   13339 O1   2    DMPC H5Y  HAL2   0.090000        1.0079           0
   13340 O1   2    DMPC C36  CTL2  -0.180000       12.0107           0
   13341 O1   2    DMPC H6X  HAL2   0.090000        1.0079           0
   13342 O1   2    DMPC H6Y  HAL2   0.090000        1.0079           0
   13343 O1   2    DMPC C37  CTL2  -0.180000       12.0107           0
   13344 O1   2    DMPC H7X  HAL2   0.090000        1.0079           0
   13345 O1   2    DMPC H7Y  HAL2   0.090000        1.0079           0
   13346 O1   2    DMPC C38  CTL2  -0.180000       12.0107           0
   13347 O1   2    DMPC H8X  HAL2   0.090000        1.0079           0
   13348 O1   2    DMPC H8Y  HAL2   0.090000        1.0079           0
   13349 O1   2    DMPC C39  CTL2  -0.180000       12.0107           0
   13350 O1   2    DMPC H9X  HAL2   0.090000        1.0079           0
   13351 O1   2    DMPC H9Y  HAL2   0.090000        1.0079           0
   13352 O1   2    DMPC C310 CTL2  -0.180000       12.0107           0
   13353 O1   2    DMPC H10X HAL2   0.090000        1.0079           0
   13354 O1   2    DMPC H10Y HAL2   0.090000        1.0079           0
   13355 O1   2    DMPC C311 CTL2  -0.180000       12.0107           0
   13356 O1   2    DMPC H11X HAL2   0.090000        1.0079           0
   13357 O1   2    DMPC H11Y HAL2   0.090000        1.0079           0
   13358 O1   2    DMPC C312 CTL2  -0.180000       12.0107           0
   13359 O1   2    DMPC H12X HAL2   0.090000        1.0079           0
   13360 O1   2    DMPC H12Y HAL2   0.090000        1.0079           0
   13361 O1   2    DMPC C313 CTL2  -0.180000       12.0107           0
   13362 O1   2    DMPC H13X HAL2   0.090000        1.0079           0
   13363 O1   2    DMPC H13Y HAL2   0.090000        1.0079           0
   13364 O1   2    DMPC C314 CTL3  -0.270000       12.0107           0
   13365 O1   2    DMPC H14X HAL3   0.090000        1.0079           0
   13366 O1   2    DMPC H14Y HAL3   0.090000        1.0079           0
   13367 O1   2    DMPC H14Z HAL3   0.090000        1.0079           0
   13368 O1   3    DMPC N    NTL   -0.600000       14.0067           0
   13369 O1   3    DMPC C13  CTL5  -0.350000       12.0107           0
   13370 O1   3    DMPC H13A HL     0.250000        1.0079           0
   13371 O1   3    DMPC H13B HL     0.250000        1.0079           0
   13372 O1   3    DMPC H13C HL     0.250000        1.0079           0
   13373 O1   3    DMPC C14  CTL5  -0.350000       12.0107           0
   13374 O1   3    DMPC H14A HL     0.250000        1.0079           0
   13375 O1   3    DMPC H14B HL     0.250000        1.0079           0
   13376 O1   3    DMPC H14C HL     0.250000        1.0079           0
   13377 O1   3    DMPC C15  CTL5  -0.350000       12.0107           0
   13378 O1   3    DMPC H15A HL     0.250000        1.0079           0
   13379 O1   3    DMPC H15B HL     0.250000        1.0079           0
   13380 O1   3    DMPC H15C HL     0.250000        1.0079           0
   13381 O1   3    DMPC C12  CTL2  -0.100000       12.0107           0
   13382 O1   3    DMPC H12A HL     0.250000        1.0079           0
   13383 O1   3    DMPC H12B HL     0.250000        1.0079           0
   13384 O1   3    DMPC C11  CTL2  -0.080000       12.0107           0
   13385 O1   3    DMPC H11A HAL2   0.090000        1.0079           0
   13386 O1   3    DMPC H11B HAL2   0.090000        1.0079           0
   13387 O1   3    DMPC P    PL     1.500000       30.9738           0
   13388 O1   3    DMPC O13  O2L   -0.780000       15.9994           0
   13389 O1   3    DMPC O14  O2L   -0.780000       15.9994           0
   13390 O1   3    DMPC O11  OSLP  -0.570000       15.9994           0
   13391 O1   3    DMPC O12  OSLP  -0.570000       15.9994           0
   13392 O1   3    DMPC C1   CTL2  -0.080000       12.0107           0
   13393 O1   3    DMPC HA   HAL2   0.090000        1.0079           0
   13394 O1   3    DMPC HB   HAL2   0.090000        1.0079           0
   13395 O1   3    DMPC C2   CTL1   0.170000       12.0107           0
   13396 O1   3    DMPC HS   HAL1   0.090000        1.0079           0
   13397 O1   3    DMPC O21  OSL   -0.490000       15.9994           0
   13398 O1   3    DMPC C21  CL     0.900000       12.0107           0
   13399 O1   3    DMPC O22  OBL   -0.630000       15.9994           0
   13400 O1   3    DMPC C22  CTL2  -0.220000       12.0107           0
   13401 O1   3    DMPC H2R  HAL2   0.090000        1.0079           0
   13402 O1   3    DMPC H2S  HAL2   0.090000        1.0079           0
   13403 O1   3    DMPC C3   CTL2   0.080000       12.0107           0
   13404 O1   3    DMPC HX   HAL2   0.090000        1.0079           0
   13405 O1   3    DMPC HY   HAL2   0.090000        1.0079           0
   13406 O1   3    DMPC O31  OSL   -0.490000       15.9994           0
   13407 O1   3    DMPC C31  CL     0.900000       12.0107           0
   13408 O1   3    DMPC O32  OBL   -0.630000       15.9994           0
   13409 O1   3    DMPC C32  CTL2  -0.220000       12.0107           0
   13410 O1   3    DMPC H2X  HAL2   0.090000        1.0079           0
   13411 O1   3    DMPC H2Y  HAL2   0.090000        1.0079           0
   13412 O1   3    DMPC C23  CTL2  -0.180000       12.0107           0
   13413 O1   3    DMPC H3R  HAL2   0.090000        1.0079           0
   13414 O1   3    DMPC H3S  HAL2   0.090000        1.0079           0
   13415 O1   3    DMPC C24  CTL2  -0.180000       12.0107           0
   13416 O1   3    DMPC H4R  HAL2   0.090000        1.0079           0
   13417 O1   3    DMPC H4S  HAL2   0.090000        1.0079           0
   13418 O1   3    DMPC C25  CTL2  -0.180000       12.0107           0
   13419 O1   3    DMPC H5R  HAL2   0.090000        1.0079           0
   13420 O1   3    DMPC H5S  HAL2   0.090000        1.0079           0
   13421 O1   3    DMPC C26  CTL2  -0.180000       12.0107           0
   13422 O1   3    DMPC H6R  HAL2   0.090000        1.0079           0
   13423 O1   3    DMPC H6S  HAL2   0.090000        1.0079           0
   13424 O1   3    DMPC C27  CTL2  -0.180000       12.0107           0
   13425 O1   3    DMPC H7R  HAL2   0.090000        1.0079           0
   13426 O1   3    DMPC H7S  HAL2   0.090000        1.0079           0
   13427 O1   3    DMPC C28  CTL2  -0.180000       12.0107           0
   13428 O1   3    DMPC H8R  HAL2   0.090000        1.0079           0
   13429 O1   3    DMPC H8S  HAL2   0.090000        1.0079           0
   13430 O1   3    DMPC C29  CTL2  -0.180000       12.0107           0
   13431 O1   3    DMPC H9R  HAL2   0.090000        1.0079           0
   13432 O1   3    DMPC H9S  HAL2   0.090000        1.0079           0
   13433 O1   3    DMPC C210 CTL2  -0.180000       12.0107           0
   13434 O1   3    DMPC H10R HAL2   0.090000        1.0079           0
   13435 O1   3    DMPC H10S HAL2   0.090000        1.0079           0
   13436 O1   3    DMPC C211 CTL2  -0.180000       12.0107           0
   13437 O1   3    DMPC H11R HAL2   0.090000        1.0079           0
   13438 O1   3    DMPC H11S HAL2   0.090000        1.0079           0
   13439 O1   3    DMPC C212 CTL2  -0.180000       12.0107           0
   13440 O1   3    DMPC H12R HAL2   0.090000        1.0079           0
   13441 O1   3    DMPC H12S HAL2   0.090000        1.0079           0
   13442 O1   3    DMPC C213 CTL2  -0.180000       12.0107           0
   13443 O1   3    DMPC H13R HAL2   0.090000        1.0079           0
   13444 O1   3    DMPC H13S HAL2   0.090000        1.0079           0
   13445 O1   3    DMPC C214 CTL3  -0.270000       12.0107           0
   13446 O1   3    DMPC H14R HAL3   0.090000        1.0079           0
   13447 O1   3    DMPC H14S HAL3   0.090000        1.0079           0
   13448 O1   3    DMPC H14T HAL3   0.090000        1.0079           0
   13449 O1   3    DMPC C33  CTL2  -0.180000       12.0107           0
   13450 O1   3    DMPC H3X  HAL2   0.090000        1.0079           0
   13451 O1   3    DMPC H3Y  HAL2   0.090000        1.0079           0
   13452 O1   3    DMPC C34  CTL2  -0.180000       12.0107           0
   13453 O1   3    DMPC H4X  HAL2   0.090000        1.0079           0
   13454 O1   3    DMPC H4Y  HAL2   0.090000        1.0079           0
   13455 O1   3    DMPC C35  CTL2  -0.180000       12.0107           0
   13456 O1   3    DMPC H5X  HAL2   0.090000        1.0079           0
   13457 O1   3    DMPC H5Y  HAL2   0.090000        1.0079           0
   13458 O1   3    DMPC C36  CTL2  -0.180000       12.0107           0
   13459 O1   3    DMPC H6X  HAL2   0.090000        1.0079           0
   13460 O1   3    DMPC H6Y  HAL2   0.090000        1.0079           0
   13461 O1   3    DMPC C37  CTL2  -0.180000       12.0107           0
   13462 O1   3    DMPC H7X  HAL2   0.090000        1.0079           0
   13463 O1   3    DMPC H7Y  HAL2   0.090000        1.0079           0
   13464 O1   3    DMPC C38  CTL2  -0.180000       12.0107           0
   13465 O1   3    DMPC H8X  HAL2   0.090000        1.0079           0
   13466 O1   3    DMPC H8Y  HAL2   0.090000        1.0079           0
   13467 O1   3    DMPC C39  CTL2  -0.180000       12.0107           0
   13468 O1   3    DMPC H9X  HAL2   0.090000        1.0079           0
   13469 O1   3    DMPC H9Y  HAL2   0.090000        1.0079           0
   13470 O1   3    DMPC C310 CTL2  -0.180000       12.0107           0
   13471 O1   3    DMPC H10X HAL2   0.090000        1.0079           0
   13472 O1   3    DMPC H10Y HAL2   0.090000        1.0079           0
   13473 O1   3    DMPC C311 CTL2  -0.180000       12.0107           0
   13474 O1   3    DMPC H11X HAL2   0.090000        1.0079           0
   13475 O1   3    DMPC H11Y HAL2   0.090000        1.0079           0
   13476 O1   3    DMPC C312 CTL2  -0.180000       12.0107           0
   13477 O1   3    DMPC H12X HAL2   0.090000        1.0079           0
   13478 O1   3    DMPC H12Y HAL2   0.090000        1.0079           0
   13479 O1   3    DMPC C313 CTL2  -0.180000       12.0107           0
   13480 O1   3    DMPC H13X HAL2   0.090000        1.0079           0
   13481 O1   3    DMPC H13Y HAL2   0.090000        1.0079           0
   13482 O1   3    DMPC C314 CTL3  -0.270000       12.0107           0
   13483 O1   3    DMPC H14X HAL3   0.090000        1.0079           0
   13484 O1   3    DMPC H14Y HAL3   0.090000        1.0079           0
   13485 O1   3    DMPC H14Z HAL3   0.090000        1.0079           0
   13486 O1   4    DMPC N    NTL   -0.600000       14.0067           0
   13487 O1   4    DMPC C13  CTL5  -0.350000       12.0107           0
   13488 O1   4    DMPC H13A HL     0.250000        1.0079           0
   13489 O1   4    DMPC H13B HL     0.250000        1.0079           0
   13490 O1   4    DMPC H13C HL     0.250000        1.0079           0
   13491 O1   4    DMPC C14  CTL5  -0.350000       12.0107           0
   13492 O1   4    DMPC H14A HL     0.250000        1.0079           0
   13493 O1   4    DMPC H14B HL     0.250000        1.0079           0
   13494 O1   4    DMPC H14C HL     0.250000        1.0079           0
   13495 O1   4    DMPC C15  CTL5  -0.350000       12.0107           0
   13496 O1   4    DMPC H15A HL     0.250000        1.0079           0
   13497 O1   4    DMPC H15B HL     0.250000        1.0079           0
   13498 O1   4    DMPC H15C HL     0.250000        1.0079           0
   13499 O1   4    DMPC C12  CTL2  -0.100000       12.0107           0
   13500 O1   4    DMPC H12A HL     0.250000        1.0079           0
   13501 O1   4    DMPC H12B HL     0.250000        1.0079           0
   13502 O1   4    DMPC C11  CTL2  -0.080000       12.0107           0
   13503 O1   4    DMPC H11A HAL2   0.090000        1.0079           0
   13504 O1   4    DMPC H11B HAL2   0.090000        1.0079           0
   13505 O1   4    DMPC P    PL     1.500000       30.9738           0
   13506 O1   4    DMPC O13  O2L   -0.780000       15.9994           0
   13507 O1   4    DMPC O14  O2L   -0.780000       15.9994           0
   13508 O1   4    DMPC O11  OSLP  -0.570000       15.9994           0
   13509 O1   4    DMPC O12  OSLP  -0.570000       15.9994           0
   13510 O1   4    DMPC C1   CTL2  -0.080000       12.0107           0
   13511 O1   4    DMPC HA   HAL2   0.090000        1.0079           0
   13512 O1   4    DMPC HB   HAL2   0.090000        1.0079           0
   13513 O1   4    DMPC C2   CTL1   0.170000       12.0107           0
   13514 O1   4    DMPC HS   HAL1   0.090000        1.0079           0
   13515 O1   4    DMPC O21  OSL   -0.490000       15.9994           0
   13516 O1   4    DMPC C21  CL     0.900000       12.0107           0
   13517 O1   4    DMPC O22  OBL   -0.630000       15.9994           0
   13518 O1   4    DMPC C22  CTL2  -0.220000       12.0107           0
   13519 O1   4    DMPC H2R  HAL2   0.090000        1.0079           0
   13520 O1   4    DMPC H2S  HAL2   0.090000        1.0079           0
   13521 O1   4    DMPC C3   CTL2   0.080000       12.0107           0
   13522 O1   4    DMPC HX   HAL2   0.090000        1.0079           0
   13523 O1   4    DMPC HY   HAL2   0.090000        1.0079           0
   13524 O1   4    DMPC O31  OSL   -0.490000       15.9994           0
   13525 O1   4    DMPC C31  CL     0.900000       12.0107           0
   13526 O1   4    DMPC O32  OBL   -0.630000       15.9994           0
   13527 O1   4    DMPC C32  CTL2  -0.220000       12.0107           0
   13528 O1   4    DMPC H2X  HAL2   0.090000        1.0079           0
   13529 O1   4    DMPC H2Y  HAL2   0.090000        1.0079           0
   13530 O1   4    DMPC C23  CTL2  -0.180000       12.0107           0
   13531 O1   4    DMPC H3R  HAL2   0.090000        1.0079           0
   13532 O1   4    DMPC H3S  HAL2   0.090000        1.0079           0
   13533 O1   4    DMPC C24  CTL2  -0.180000       12.0107           0
   13534 O1   4    DMPC H4R  HAL2   0.090000        1.0079           0
   13535 O1   4    DMPC H4S  HAL2   0.090000        1.0079           0
   13536 O1   4    DMPC C25  CTL2  -0.180000       12.0107           0
   13537 O1   4    DMPC H5R  HAL2   0.090000        1.0079           0
   13538 O1   4    DMPC H5S  HAL2   0.090000        1.0079           0
   13539 O1   4    DMPC C26  CTL2  -0.180000       12.0107           0
   13540 O1   4    DMPC H6R  HAL2   0.090000        1.0079           0
   13541 O1   4    DMPC H6S  HAL2   0.090000        1.0079           0
   13542 O1   4    DMPC C27  CTL2  -0.180000       12.0107           0
   13543 O1   4    DMPC H7R  HAL2   0.090000        1.0079           0
   13544 O1   4    DMPC H7S  HAL2   0.090000        1.0079           0
   13545 O1   4    DMPC C28  CTL2  -0.180000       12.0107           0
   13546 O1   4    DMPC H8R  HAL2   0.090000        1.0079           0
   13547 O1   4    DMPC H8S  HAL2   0.090000        1.0079           0
   13548 O1   4    DMPC C29  CTL2  -0.180000       12.0107           0
   13549 O1   4    DMPC H9R  HAL2   0.090000        1.0079           0
   13550 O1   4    DMPC H9S  HAL2   0.090000        1.0079           0
   13551 O1   4    DMPC C210 CTL2  -0.180000       12.0107           0
   13552 O1   4    DMPC H10R HAL2   0.090000        1.0079           0
   13553 O1   4    DMPC H10S HAL2   0.090000        1.0079           0
   13554 O1   4    DMPC C211 CTL2  -0.180000       12.0107           0
   13555 O1   4    DMPC H11R HAL2   0.090000        1.0079           0
   13556 O1   4    DMPC H11S HAL2   0.090000        1.0079           0
   13557 O1   4    DMPC C212 CTL2  -0.180000       12.0107           0
   13558 O1   4    DMPC H12R HAL2   0.090000        1.0079           0
   13559 O1   4    DMPC H12S HAL2   0.090000        1.0079           0
   13560 O1   4    DMPC C213 CTL2  -0.180000       12.0107           0
   13561 O1   4    DMPC H13R HAL2   0.090000        1.0079           0
   13562 O1   4    DMPC H13S HAL2   0.090000        1.0079           0
   13563 O1   4    DMPC C214 CTL3  -0.270000       12.0107           0
   13564 O1   4    DMPC H14R HAL3   0.090000        1.0079           0
   13565 O1   4    DMPC H14S HAL3   0.090000        1.0079           0
   13566 O1   4    DMPC H14T HAL3   0.090000        1.0079           0
   13567 O1   4    DMPC C33  CTL2  -0.180000       12.0107           0
   13568 O1   4    DMPC H3X  HAL2   0.090000        1.0079           0
   13569 O1   4    DMPC H3Y  HAL2   0.090000        1.0079           0
   13570 O1   4    DMPC C34  CTL2  -0.180000       12.0107           0
   13571 O1   4    DMPC H4X  HAL2   0.090000        1.0079           0
   13572 O1   4    DMPC H4Y  HAL2   0.090000        1.0079           0
   13573 O1   4    DMPC C35  CTL2  -0.180000       12.0107           0
   13574 O1   4    DMPC H5X  HAL2   0.090000        1.0079           0
   13575 O1   4    DMPC H5Y  HAL2   0.090000        1.0079           0
   13576 O1   4    DMPC C36  CTL2  -0.180000       12.0107           0
   13577 O1   4    DMPC H6X  HAL2   0.090000        1.0079           0
   13578 O1   4    DMPC H6Y  HAL2   0.090000        1.0079           0
   13579 O1   4    DMPC C37  CTL2  -0.180000       12.0107           0
   13580 O1   4    DMPC H7X  HAL2   0.090000        1.0079           0
   13581 O1   4    DMPC H7Y  HAL2   0.090000        1.0079           0
   13582 O1   4    DMPC C38  CTL2  -0.180000       12.0107           0
   13583 O1   4    DMPC H8X  HAL2   0.090000        1.0079           0
   13584 O1   4    DMPC H8Y  HAL2   0.090000        1.0079           0
   13585 O1   4    DMPC C39  CTL2  -0.180000       12.0107           0
   13586 O1   4    DMPC H9X  HAL2   0.090000        1.0079           0
   13587 O1   4    DMPC H9Y  HAL2   0.090000        1.0079           0
   13588 O1   4    DMPC C310 CTL2  -0.180000       12.0107           0
   13589 O1   4    DMPC H10X HAL2   0.090000        1.0079           0
   13590 O1   4    DMPC H10Y HAL2   0.090000        1.0079           0
   13591 O1   4    DMPC C311 CTL2  -0.180000       12.0107           0
   13592 O1   4    DMPC H11X HAL2   0.090000        1.0079           0
   13593 O1   4    DMPC H11Y HAL2   0.090000        1.0079           0
   13594 O1   4    DMPC C312 CTL2  -0.180000       12.0107           0
   13595 O1   4    DMPC H12X HAL2   0.090000        1.0079           0
   13596 O1   4    DMPC H12Y HAL2   0.090000        1.0079           0
   13597 O1   4    DMPC C313 CTL2  -0.180000       12.0107           0
   13598 O1   4    DMPC H13X HAL2   0.090000        1.0079           0
   13599 O1   4    DMPC H13Y HAL2   0.090000        1.0079           0
   13600 O1   4    DMPC C314 CTL3  -0.270000       12.0107           0
   13601 O1   4    DMPC H14X HAL3   0.090000        1.0079           0
   13602 O1   4    DMPC H14Y HAL3   0.090000        1.0079           0
   13603 O1   4    DMPC H14Z HAL3   0.090000        1.0079           0
   13604 O1   5    DMPC N    NTL   -0.600000       14.0067           0
   13605 O1   5    DMPC C13  CTL5  -0.350000       12.0107           0
   13606 O1   5    DMPC H13A HL     0.250000        1.0079           0
   13607 O1   5    DMPC H13B HL     0.250000        1.0079           0
   13608 O1   5    DMPC H13C HL     0.250000        1.0079           0
   13609 O1   5    DMPC C14  CTL5  -0.350000       12.0107           0
   13610 O1   5    DMPC H14A HL     0.250000        1.0079           0
   13611 O1   5    DMPC H14B HL     0.250000        1.0079           0
   13612 O1   5    DMPC H14C HL     0.250000        1.0079           0
   13613 O1   5    DMPC C15  CTL5  -0.350000       12.0107           0
   13614 O1   5    DMPC H15A HL     0.250000        1.0079           0
   13615 O1   5    DMPC H15B HL     0.250000        1.0079           0
   13616 O1   5    DMPC H15C HL     0.250000        1.0079           0
   13617 O1   5    DMPC C12  CTL2  -0.100000       12.0107           0
   13618 O1   5    DMPC H12A HL     0.250000        1.0079           0
   13619 O1   5    DMPC H12B HL     0.250000        1.0079           0
   13620 O1   5    DMPC C11  CTL2  -0.080000       12.0107           0
   13621 O1   5    DMPC H11A HAL2   0.090000        1.0079           0
   13622 O1   5    DMPC H11B HAL2   0.090000        1.0079           0
   13623 O1   5    DMPC P    PL     1.500000       30.9738           0
   13624 O1   5    DMPC O13  O2L   -0.780000       15.9994           0
   13625 O1   5    DMPC O14  O2L   -0.780000       15.9994           0
   13626 O1   5    DMPC O11  OSLP  -0.570000       15.9994           0
   13627 O1   5    DMPC O12  OSLP  -0.570000       15.9994           0
   13628 O1   5    DMPC C1   CTL2  -0.080000       12.0107           0
   13629 O1   5    DMPC HA   HAL2   0.090000        1.0079           0
   13630 O1   5    DMPC HB   HAL2   0.090000        1.0079           0
   13631 O1   5    DMPC C2   CTL1   0.170000       12.0107           0
   13632 O1   5    DMPC HS   HAL1   0.090000        1.0079           0
   13633 O1   5    DMPC O21  OSL   -0.490000       15.9994           0
   13634 O1   5    DMPC C21  CL     0.900000       12.0107           0
   13635 O1   5    DMPC O22  OBL   -0.630000       15.9994           0
   13636 O1   5    DMPC C22  CTL2  -0.220000       12.0107           0
   13637 O1   5    DMPC H2R  HAL2   0.090000        1.0079           0
   13638 O1   5    DMPC H2S  HAL2   0.090000        1.0079           0
   13639 O1   5    DMPC C3   CTL2   0.080000       12.0107           0
   13640 O1   5    DMPC HX   HAL2   0.090000        1.0079           0
   13641 O1   5    DMPC HY   HAL2   0.090000        1.0079           0
   13642 O1   5    DMPC O31  OSL   -0.490000       15.9994           0
   13643 O1   5    DMPC C31  CL     0.900000       12.0107           0
   13644 O1   5    DMPC O32  OBL   -0.630000       15.9994           0
   13645 O1   5    DMPC C32  CTL2  -0.220000       12.0107           0
   13646 O1   5    DMPC H2X  HAL2   0.090000        1.0079           0
   13647 O1   5    DMPC H2Y  HAL2   0.090000        1.0079           0
   13648 O1   5    DMPC C23  CTL2  -0.180000       12.0107           0
   13649 O1   5    DMPC H3R  HAL2   0.090000        1.0079           0
   13650 O1   5    DMPC H3S  HAL2   0.090000        1.0079           0
   13651 O1   5    DMPC C24  CTL2  -0.180000       12.0107           0
   13652 O1   5    DMPC H4R  HAL2   0.090000        1.0079           0
   13653 O1   5    DMPC H4S  HAL2   0.090000        1.0079           0
   13654 O1   5    DMPC C25  CTL2  -0.180000       12.0107           0
   13655 O1   5    DMPC H5R  HAL2   0.090000        1.0079           0
   13656 O1   5    DMPC H5S  HAL2   0.090000        1.0079           0
   13657 O1   5    DMPC C26  CTL2  -0.180000       12.0107           0
   13658 O1   5    DMPC H6R  HAL2   0.090000        1.0079           0
   13659 O1   5    DMPC H6S  HAL2   0.090000        1.0079           0
   13660 O1   5    DMPC C27  CTL2  -0.180000       12.0107           0
   13661 O1   5    DMPC H7R  HAL2   0.090000        1.0079           0
   13662 O1   5    DMPC H7S  HAL2   0.090000        1.0079           0
   13663 O1   5    DMPC C28  CTL2  -0.180000       12.0107           0
   13664 O1   5    DMPC H8R  HAL2   0.090000        1.0079           0
   13665 O1   5    DMPC H8S  HAL2   0.090000        1.0079           0
   13666 O1   5    DMPC C29  CTL2  -0.180000       12.0107           0
   13667 O1   5    DMPC H9R  HAL2   0.090000        1.0079           0
   13668 O1   5    DMPC H9S  HAL2   0.090000        1.0079           0
   13669 O1   5    DMPC C210 CTL2  -0.180000       12.0107           0
   13670 O1   5    DMPC H10R HAL2   0.090000        1.0079           0
   13671 O1   5    DMPC H10S HAL2   0.090000        1.0079           0
   13672 O1   5    DMPC C211 CTL2  -0.180000       12.0107           0
   13673 O1   5    DMPC H11R HAL2   0.090000        1.0079           0
   13674 O1   5    DMPC H11S HAL2   0.090000        1.0079           0
   13675 O1   5    DMPC C212 CTL2  -0.180000       12.0107           0
   13676 O1   5    DMPC H12R HAL2   0.090000        1.0079           0
   13677 O1   5    DMPC H12S HAL2   0.090000        1.0079           0
   13678 O1   5    DMPC C213 CTL2  -0.180000       12.0107           0
   13679 O1   5    DMPC H13R HAL2   0.090000        1.0079           0
   13680 O1   5    DMPC H13S HAL2   0.090000        1.0079           0
   13681 O1   5    DMPC C214 CTL3  -0.270000       12.0107           0
   13682 O1   5    DMPC H14R HAL3   0.090000        1.0079           0
   13683 O1   5    DMPC H14S HAL3   0.090000        1.0079           0
   13684 O1   5    DMPC H14T HAL3   0.090000        1.0079           0
   13685 O1   5    DMPC C33  CTL2  -0.180000       12.0107           0
   13686 O1   5    DMPC H3X  HAL2   0.090000        1.0079           0
   13687 O1   5    DMPC H3Y  HAL2   0.090000        1.0079           0
   13688 O1   5    DMPC C34  CTL2  -0.180000       12.0107           0
   13689 O1   5    DMPC H4X  HAL2   0.090000        1.0079           0
   13690 O1   5    DMPC H4Y  HAL2   0.090000        1.0079           0
   13691 O1   5    DMPC C35  CTL2  -0.180000       12.0107           0
   13692 O1   5    DMPC H5X  HAL2   0.090000        1.0079           0
   13693 O1   5    DMPC H5Y  HAL2   0.090000        1.0079           0
   13694 O1   5    DMPC C36  CTL2  -0.180000       12.0107           0
   13695 O1   5    DMPC H6X  HAL2   0.090000        1.0079           0
   13696 O1   5    DMPC H6Y  HAL2   0.090000        1.0079           0
   13697 O1   5    DMPC C37  CTL2  -0.180000       12.0107           0
   13698 O1   5    DMPC H7X  HAL2   0.090000        1.0079           0
   13699 O1   5    DMPC H7Y  HAL2   0.090000        1.0079           0
   13700 O1   5    DMPC C38  CTL2  -0.180000       12.0107           0
   13701 O1   5    DMPC H8X  HAL2   0.090000        1.0079           0
   13702 O1   5    DMPC H8Y  HAL2   0.090000        1.0079           0
   13703 O1   5    DMPC C39  CTL2  -0.180000       12.0107           0
   13704 O1   5    DMPC H9X  HAL2   0.090000        1.0079           0
   13705 O1   5    DMPC H9Y  HAL2   0.090000        1.0079           0
   13706 O1   5    DMPC C310 CTL2  -0.180000       12.0107           0
   13707 O1   5    DMPC H10X HAL2   0.090000        1.0079           0
   13708 O1   5    DMPC H10Y HAL2   0.090000        1.0079           0
   13709 O1   5    DMPC C311 CTL2  -0.180000       12.0107           0
   13710 O1   5    DMPC H11X HAL2   0.090000        1.0079           0
   13711 O1   5    DMPC H11Y HAL2   0.090000        1.0079           0
   13712 O1   5    DMPC C312 CTL2  -0.180000       12.0107           0
   13713 O1   5    DMPC H12X HAL2   0.090000        1.0079           0
   13714 O1   5    DMPC H12Y HAL2   0.090000        1.0079           0
   13715 O1   5    DMPC C313 CTL2  -0.180000       12.0107           0
   13716 O1   5    DMPC H13X HAL2   0.090000        1.0079           0
   13717 O1   5    DMPC H13Y HAL2   0.090000        1.0079           0
   13718 O1   5    DMPC C314 CTL3  -0.270000       12.0107           0
   13719 O1   5    DMPC H14X HAL3   0.090000        1.0079           0
   13720 O1   5    DMPC H14Y HAL3   0.090000        1.0079           0
   13721 O1   5    DMPC H14Z HAL3   0.090000        1.0079           0
   13722 O1   6    DMPC N    NTL   -0.600000       14.0067           0
   13723 O1   6    DMPC C13  CTL5  -0.350000       12.0107           0
   13724 O1   6    DMPC H13A HL     0.250000        1.0079           0
   13725 O1   6    DMPC H13B HL     0.250000        1.0079           0
   13726 O1   6    DMPC H13C HL     0.250000        1.0079           0
   13727 O1   6    DMPC C14  CTL5  -0.350000       12.0107           0
   13728 O1   6    DMPC H14A HL     0.250000        1.0079           0
   13729 O1   6    DMPC H14B HL     0.250000        1.0079           0
   13730 O1   6    DMPC H14C HL     0.250000        1.0079           0
   13731 O1   6    DMPC C15  CTL5  -0.350000       12.0107           0
   13732 O1   6    DMPC H15A HL     0.250000        1.0079           0
   13733 O1   6    DMPC H15B HL     0.250000        1.0079           0
   13734 O1   6    DMPC H15C HL     0.250000        1.0079           0
   13735 O1   6    DMPC C12  CTL2  -0.100000       12.0107           0
   13736 O1   6    DMPC H12A HL     0.250000        1.0079           0
   13737 O1   6    DMPC H12B HL     0.250000        1.0079           0
   13738 O1   6    DMPC C11  CTL2  -0.080000       12.0107           0
   13739 O1   6    DMPC H11A HAL2   0.090000        1.0079           0
   13740 O1   6    DMPC H11B HAL2   0.090000        1.0079           0
   13741 O1   6    DMPC P    PL     1.500000       30.9738           0
   13742 O1   6    DMPC O13  O2L   -0.780000       15.9994           0
   13743 O1   6    DMPC O14  O2L   -0.780000       15.9994           0
   13744 O1   6    DMPC O11  OSLP  -0.570000       15.9994           0
   13745 O1   6    DMPC O12  OSLP  -0.570000       15.9994           0
   13746 O1   6    DMPC C1   CTL2  -0.080000       12.0107           0
   13747 O1   6    DMPC HA   HAL2   0.090000        1.0079           0
   13748 O1   6    DMPC HB   HAL2   0.090000        1.0079           0
   13749 O1   6    DMPC C2   CTL1   0.170000       12.0107           0
   13750 O1   6    DMPC HS   HAL1   0.090000        1.0079           0
   13751 O1   6    DMPC O21  OSL   -0.490000       15.9994           0
   13752 O1   6    DMPC C21  CL     0.900000       12.0107           0
   13753 O1   6    DMPC O22  OBL   -0.630000       15.9994           0
   13754 O1   6    DMPC C22  CTL2  -0.220000       12.0107           0
   13755 O1   6    DMPC H2R  HAL2   0.090000        1.0079           0
   13756 O1   6    DMPC H2S  HAL2   0.090000        1.0079           0
   13757 O1   6    DMPC C3   CTL2   0.080000       12.0107           0
   13758 O1   6    DMPC HX   HAL2   0.090000        1.0079           0
   13759 O1   6    DMPC HY   HAL2   0.090000        1.0079           0
   13760 O1   6    DMPC O31  OSL   -0.490000       15.9994           0
   13761 O1   6    DMPC C31  CL     0.900000       12.0107           0
   13762 O1   6    DMPC O32  OBL   -0.630000       15.9994           0
   13763 O1   6    DMPC C32  CTL2  -0.220000       12.0107           0
   13764 O1   6    DMPC H2X  HAL2   0.090000        1.0079           0
   13765 O1   6    DMPC H2Y  HAL2   0.090000        1.0079           0
   13766 O1   6    DMPC C23  CTL2  -0.180000       12.0107           0
   13767 O1   6    DMPC H3R  HAL2   0.090000        1.0079           0
   13768 O1   6    DMPC H3S  HAL2   0.090000        1.0079           0
   13769 O1   6    DMPC C24  CTL2  -0.180000       12.0107           0
   13770 O1   6    DMPC H4R  HAL2   0.090000        1.0079           0
   13771 O1   6    DMPC H4S  HAL2   0.090000        1.0079           0
   13772 O1   6    DMPC C25  CTL2  -0.180000       12.0107           0
   13773 O1   6    DMPC H5R  HAL2   0.090000        1.0079           0
   13774 O1   6    DMPC H5S  HAL2   0.090000        1.0079           0
   13775 O1   6    DMPC C26  CTL2  -0.180000       12.0107           0
   13776 O1   6    DMPC H6R  HAL2   0.090000        1.0079           0
   13777 O1   6    DMPC H6S  HAL2   0.090000        1.0079           0
   13778 O1   6    DMPC C27  CTL2  -0.180000       12.0107           0
   13779 O1   6    DMPC H7R  HAL2   0.090000        1.0079           0
   13780 O1   6    DMPC H7S  HAL2   0.090000        1.0079           0
   13781 O1   6    DMPC C28  CTL2  -0.180000       12.0107           0
   13782 O1   6    DMPC H8R  HAL2   0.090000        1.0079           0
   13783 O1   6    DMPC H8S  HAL2   0.090000        1.0079           0
   13784 O1   6    DMPC C29  CTL2  -0.180000       12.0107           0
   13785 O1   6    DMPC H9R  HAL2   0.090000        1.0079           0
   13786 O1   6    DMPC H9S  HAL2   0.090000        1.0079           0
   13787 O1   6    DMPC C210 CTL2  -0.180000       12.0107           0
   13788 O1   6    DMPC H10R HAL2   0.090000        1.0079           0
   13789 O1   6    DMPC H10S HAL2   0.090000        1.0079           0
   13790 O1   6    DMPC C211 CTL2  -0.180000       12.0107           0
   13791 O1   6    DMPC H11R HAL2   0.090000        1.0079           0
   13792 O1   6    DMPC H11S HAL2   0.090000        1.0079           0
   13793 O1   6    DMPC C212 CTL2  -0.180000       12.0107           0
   13794 O1   6    DMPC H12R HAL2   0.090000        1.0079           0
   13795 O1   6    DMPC H12S HAL2   0.090000        1.0079           0
   13796 O1   6    DMPC C213 CTL2  -0.180000       12.0107           0
   13797 O1   6    DMPC H13R HAL2   0.090000        1.0079           0
   13798 O1   6    DMPC H13S HAL2   0.090000        1.0079           0
   13799 O1   6    DMPC C214 CTL3  -0.270000       12.0107           0
   13800 O1   6    DMPC H14R HAL3   0.090000        1.0079           0
   13801 O1   6    DMPC H14S HAL3   0.090000        1.0079           0
   13802 O1   6    DMPC H14T HAL3   0.090000        1.0079           0
   13803 O1   6    DMPC C33  CTL2  -0.180000       12.0107           0
   13804 O1   6    DMPC H3X  HAL2   0.090000        1.0079           0
   13805 O1   6    DMPC H3Y  HAL2   0.090000        1.0079           0
   13806 O1   6    DMPC C34  CTL2  -0.180000       12.0107           0
   13807 O1   6    DMPC H4X  HAL2   0.090000        1.0079           0
   13808 O1   6    DMPC H4Y  HAL2   0.090000        1.0079           0
   13809 O1   6    DMPC C35  CTL2  -0.180000       12.0107           0
   13810 O1   6    DMPC H5X  HAL2   0.090000        1.0079           0
   13811 O1   6    DMPC H5Y  HAL2   0.090000        1.0079           0
   13812 O1   6    DMPC C36  CTL2  -0.180000       12.0107           0
   13813 O1   6    DMPC H6X  HAL2   0.090000        1.0079           0
   13814 O1   6    DMPC H6Y  HAL2   0.090000        1.0079           0
   13815 O1   6    DMPC C37  CTL2  -0.180000       12.0107           0
   13816 O1   6    DMPC H7X  HAL2   0.090000        1.0079           0
   13817 O1   6    DMPC H7Y  HAL2   0.090000        1.0079           0
   13818 O1   6    DMPC C38  CTL2  -0.180000       12.0107           0
   13819 O1   6    DMPC H8X  HAL2   0.090000        1.0079           0
   13820 O1   6    DMPC H8Y  HAL2   0.090000        1.0079           0
   13821 O1   6    DMPC C39  CTL2  -0.180000       12.0107           0
   13822 O1   6    DMPC H9X  HAL2   0.090000        1.0079           0
   13823 O1   6    DMPC H9Y  HAL2   0.090000        1.0079           0
   13824 O1   6    DMPC C310 CTL2  -0.180000       12.0107           0
   13825 O1   6    DMPC H10X HAL2   0.090000        1.0079           0
   13826 O1   6    DMPC H10Y HAL2   0.090000        1.0079           0
   13827 O1   6    DMPC C311 CTL2  -0.180000       12.0107           0
   13828 O1   6    DMPC H11X HAL2   0.090000        1.0079           0
   13829 O1   6    DMPC H11Y HAL2   0.090000        1.0079           0
   13830 O1   6    DMPC C312 CTL2  -0.180000       12.0107           0
   13831 O1   6    DMPC H12X HAL2   0.090000        1.0079           0
   13832 O1   6    DMPC H12Y HAL2   0.090000        1.0079           0
   13833 O1   6    DMPC C313 CTL2  -0.180000       12.0107           0
   13834 O1   6    DMPC H13X HAL2   0.090000        1.0079           0
   13835 O1   6    DMPC H13Y HAL2   0.090000        1.0079           0
   13836 O1   6    DMPC C314 CTL3  -0.270000       12.0107           0
   13837 O1   6    DMPC H14X HAL3   0.090000        1.0079           0
   13838 O1   6    DMPC H14Y HAL3   0.090000        1.0079           0
   13839 O1   6    DMPC H14Z HAL3   0.090000        1.0079           0
   13840 O1   7    DMPC N    NTL   -0.600000       14.0067           0
   13841 O1   7    DMPC C13  CTL5  -0.350000       12.0107           0
   13842 O1   7    DMPC H13A HL     0.250000        1.0079           0
   13843 O1   7    DMPC H13B HL     0.250000        1.0079           0
   13844 O1   7    DMPC H13C HL     0.250000        1.0079           0
   13845 O1   7    DMPC C14  CTL5  -0.350000       12.0107           0
   13846 O1   7    DMPC H14A HL     0.250000        1.0079           0
   13847 O1   7    DMPC H14B HL     0.250000        1.0079           0
   13848 O1   7    DMPC H14C HL     0.250000        1.0079           0
   13849 O1   7    DMPC C15  CTL5  -0.350000       12.0107           0
   13850 O1   7    DMPC H15A HL     0.250000        1.0079           0
   13851 O1   7    DMPC H15B HL     0.250000        1.0079           0
   13852 O1   7    DMPC H15C HL     0.250000        1.0079           0
   13853 O1   7    DMPC C12  CTL2  -0.100000       12.0107           0
   13854 O1   7    DMPC H12A HL     0.250000        1.0079           0
   13855 O1   7    DMPC H12B HL     0.250000        1.0079           0
   13856 O1   7    DMPC C11  CTL2  -0.080000       12.0107           0
   13857 O1   7    DMPC H11A HAL2   0.090000        1.0079           0
   13858 O1   7    DMPC H11B HAL2   0.090000        1.0079           0
   13859 O1   7    DMPC P    PL     1.500000       30.9738           0
   13860 O1   7    DMPC O13  O2L   -0.780000       15.9994           0
   13861 O1   7    DMPC O14  O2L   -0.780000       15.9994           0
   13862 O1   7    DMPC O11  OSLP  -0.570000       15.9994           0
   13863 O1   7    DMPC O12  OSLP  -0.570000       15.9994           0
   13864 O1   7    DMPC C1   CTL2  -0.080000       12.0107           0
   13865 O1   7    DMPC HA   HAL2   0.090000        1.0079           0
   13866 O1   7    DMPC HB   HAL2   0.090000        1.0079           0
   13867 O1   7    DMPC C2   CTL1   0.170000       12.0107           0
   13868 O1   7    DMPC HS   HAL1   0.090000        1.0079           0
   13869 O1   7    DMPC O21  OSL   -0.490000       15.9994           0
   13870 O1   7    DMPC C21  CL     0.900000       12.0107           0
   13871 O1   7    DMPC O22  OBL   -0.630000       15.9994           0
   13872 O1   7    DMPC C22  CTL2  -0.220000       12.0107           0
   13873 O1   7    DMPC H2R  HAL2   0.090000        1.0079           0
   13874 O1   7    DMPC H2S  HAL2   0.090000        1.0079           0
   13875 O1   7    DMPC C3   CTL2   0.080000       12.0107           0
   13876 O1   7    DMPC HX   HAL2   0.090000        1.0079           0
   13877 O1   7    DMPC HY   HAL2   0.090000        1.0079           0
   13878 O1   7    DMPC O31  OSL   -0.490000       15.9994           0
   13879 O1   7    DMPC C31  CL     0.900000       12.0107           0
   13880 O1   7    DMPC O32  OBL   -0.630000       15.9994           0
   13881 O1   7    DMPC C32  CTL2  -0.220000       12.0107           0
   13882 O1   7    DMPC H2X  HAL2   0.090000        1.0079           0
   13883 O1   7    DMPC H2Y  HAL2   0.090000        1.0079           0
   13884 O1   7    DMPC C23  CTL2  -0.180000       12.0107           0
   13885 O1   7    DMPC H3R  HAL2   0.090000        1.0079           0
   13886 O1   7    DMPC H3S  HAL2   0.090000        1.0079           0
   13887 O1   7    DMPC C24  CTL2  -0.180000       12.0107           0
   13888 O1   7    DMPC H4R  HAL2   0.090000        1.0079           0
   13889 O1   7    DMPC H4S  HAL2   0.090000        1.0079           0
   13890 O1   7    DMPC C25  CTL2  -0.180000       12.0107           0
   13891 O1   7    DMPC H5R  HAL2   0.090000        1.0079           0
   13892 O1   7    DMPC H5S  HAL2   0.090000        1.0079           0
   13893 O1   7    DMPC C26  CTL2  -0.180000       12.0107           0
   13894 O1   7    DMPC H6R  HAL2   0.090000        1.0079           0
   13895 O1   7    DMPC H6S  HAL2   0.090000        1.0079           0
   13896 O1   7    DMPC C27  CTL2  -0.180000       12.0107           0
   13897 O1   7    DMPC H7R  HAL2   0.090000        1.0079           0
   13898 O1   7    DMPC H7S  HAL2   0.090000        1.0079           0
   13899 O1   7    DMPC C28  CTL2  -0.180000       12.0107           0
   13900 O1   7    DMPC H8R  HAL2   0.090000        1.0079           0
   13901 O1   7    DMPC H8S  HAL2   0.090000        1.0079           0
   13902 O1   7    DMPC C29  CTL2  -0.180000       12.0107           0
   13903 O1   7    DMPC H9R  HAL2   0.090000        1.0079           0
   13904 O1   7    DMPC H9S  HAL2   0.090000        1.0079           0
   13905 O1   7    DMPC C210 CTL2  -0.180000       12.0107           0
   13906 O1   7    DMPC H10R HAL2   0.090000        1.0079           0
   13907 O1   7    DMPC H10S HAL2   0.090000        1.0079           0
   13908 O1   7    DMPC C211 CTL2  -0.180000       12.0107           0
   13909 O1   7    DMPC H11R HAL2   0.090000        1.0079           0
   13910 O1   7    DMPC H11S HAL2   0.090000        1.0079           0
   13911 O1   7    DMPC C212 CTL2  -0.180000       12.0107           0
   13912 O1   7    DMPC H12R HAL2   0.090000        1.0079           0
   13913 O1   7    DMPC H12S HAL2   0.090000        1.0079           0
   13914 O1   7    DMPC C213 CTL2  -0.180000       12.0107           0
   13915 O1   7    DMPC H13R HAL2   0.090000        1.0079           0
   13916 O1   7    DMPC H13S HAL2   0.090000        1.0079           0
   13917 O1   7    DMPC C214 CTL3  -0.270000       12.0107           0
   13918 O1   7    DMPC H14R HAL3   0.090000        1.0079           0
   13919 O1   7    DMPC H14S HAL3   0.090000        1.0079           0
   13920 O1   7    DMPC H14T HAL3   0.090000        1.0079           0
   13921 O1   7    DMPC C33  CTL2  -0.180000       12.0107           0
   13922 O1   7    DMPC H3X  HAL2   0.090000        1.0079           0
   13923 O1   7    DMPC H3Y  HAL2   0.090000        1.0079           0
   13924 O1   7    DMPC C34  CTL2  -0.180000       12.0107           0
   13925 O1   7    DMPC H4X  HAL2   0.090000        1.0079           0
   13926 O1   7    DMPC H4Y  HAL2   0.090000        1.0079           0
   13927 O1   7    DMPC C35  CTL2  -0.180000       12.0107           0
   13928 O1   7    DMPC H5X  HAL2   0.090000        1.0079           0
   13929 O1   7    DMPC H5Y  HAL2   0.090000        1.0079           0
   13930 O1   7    DMPC C36  CTL2  -0.180000       12.0107           0
   13931 O1   7    DMPC H6X  HAL2   0.090000        1.0079           0
   13932 O1   7    DMPC H6Y  HAL2   0.090000        1.0079           0
   13933 O1   7    DMPC C37  CTL2  -0.180000       12.0107           0
   13934 O1   7    DMPC H7X  HAL2   0.090000        1.0079           0
   13935 O1   7    DMPC H7Y  HAL2   0.090000        1.0079           0
   13936 O1   7    DMPC C38  CTL2  -0.180000       12.0107           0
   13937 O1   7    DMPC H8X  HAL2   0.090000        1.0079           0
   13938 O1   7    DMPC H8Y  HAL2   0.090000        1.0079           0
   13939 O1   7    DMPC C39  CTL2  -0.180000       12.0107           0
   13940 O1   7    DMPC H9X  HAL2   0.090000        1.0079           0
   13941 O1   7    DMPC H9Y  HAL2   0.090000        1.0079           0
   13942 O1   7    DMPC C310 CTL2  -0.180000       12.0107           0
   13943 O1   7    DMPC H10X HAL2   0.090000        1.0079           0
   13944 O1   7    DMPC H10Y HAL2   0.090000        1.0079           0
   13945 O1   7    DMPC C311 CTL2  -0.180000       12.0107           0
   13946 O1   7    DMPC H11X HAL2   0.090000        1.0079           0
   13947 O1   7    DMPC H11Y HAL2   0.090000        1.0079           0
   13948 O1   7    DMPC C312 CTL2  -0.180000       12.0107           0
   13949 O1   7    DMPC H12X HAL2   0.090000        1.0079           0
   13950 O1   7    DMPC H12Y HAL2   0.090000        1.0079           0
   13951 O1   7    DMPC C313 CTL2  -0.180000       12.0107           0
   13952 O1   7    DMPC H13X HAL2   0.090000        1.0079           0
   13953 O1   7    DMPC H13Y HAL2   0.090000        1.0079           0
   13954 O1   7    DMPC C314 CTL3  -0.270000       12.0107           0
   13955 O1   7    DMPC H14X HAL3   0.090000        1.0079           0
   13956 O1   7    DMPC H14Y HAL3   0.090000        1.0079           0
   13957 O1   7    DMPC H14Z HAL3   0.090000        1.0079           0
   13958 O1   8    DMPC N    NTL   -0.600000       14.0067           0
   13959 O1   8    DMPC C13  CTL5  -0.350000       12.0107           0
   13960 O1   8    DMPC H13A HL     0.250000        1.0079           0
   13961 O1   8    DMPC H13B HL     0.250000        1.0079           0
   13962 O1   8    DMPC H13C HL     0.250000        1.0079           0
   13963 O1   8    DMPC C14  CTL5  -0.350000       12.0107           0
   13964 O1   8    DMPC H14A HL     0.250000        1.0079           0
   13965 O1   8    DMPC H14B HL     0.250000        1.0079           0
   13966 O1   8    DMPC H14C HL     0.250000        1.0079           0
   13967 O1   8    DMPC C15  CTL5  -0.350000       12.0107           0
   13968 O1   8    DMPC H15A HL     0.250000        1.0079           0
   13969 O1   8    DMPC H15B HL     0.250000        1.0079           0
   13970 O1   8    DMPC H15C HL     0.250000        1.0079           0
   13971 O1   8    DMPC C12  CTL2  -0.100000       12.0107           0
   13972 O1   8    DMPC H12A HL     0.250000        1.0079           0
   13973 O1   8    DMPC H12B HL     0.250000        1.0079           0
   13974 O1   8    DMPC C11  CTL2  -0.080000       12.0107           0
   13975 O1   8    DMPC H11A HAL2   0.090000        1.0079           0
   13976 O1   8    DMPC H11B HAL2   0.090000        1.0079           0
   13977 O1   8    DMPC P    PL     1.500000       30.9738           0
   13978 O1   8    DMPC O13  O2L   -0.780000       15.9994           0
   13979 O1   8    DMPC O14  O2L   -0.780000       15.9994           0
   13980 O1   8    DMPC O11  OSLP  -0.570000       15.9994           0
   13981 O1   8    DMPC O12  OSLP  -0.570000       15.9994           0
   13982 O1   8    DMPC C1   CTL2  -0.080000       12.0107           0
   13983 O1   8    DMPC HA   HAL2   0.090000        1.0079           0
   13984 O1   8    DMPC HB   HAL2   0.090000        1.0079           0
   13985 O1   8    DMPC C2   CTL1   0.170000       12.0107           0
   13986 O1   8    DMPC HS   HAL1   0.090000        1.0079           0
   13987 O1   8    DMPC O21  OSL   -0.490000       15.9994           0
   13988 O1   8    DMPC C21  CL     0.900000       12.0107           0
   13989 O1   8    DMPC O22  OBL   -0.630000       15.9994           0
   13990 O1   8    DMPC C22  CTL2  -0.220000       12.0107           0
   13991 O1   8    DMPC H2R  HAL2   0.090000        1.0079           0
   13992 O1   8    DMPC H2S  HAL2   0.090000        1.0079           0
   13993 O1   8    DMPC C3   CTL2   0.080000       12.0107           0
   13994 O1   8    DMPC HX   HAL2   0.090000        1.0079           0
   13995 O1   8    DMPC HY   HAL2   0.090000        1.0079           0
   13996 O1   8    DMPC O31  OSL   -0.490000       15.9994           0
   13997 O1   8    DMPC C31  CL     0.900000       12.0107           0
   13998 O1   8    DMPC O32  OBL   -0.630000       15.9994           0
   13999 O1   8    DMPC C32  CTL2  -0.220000       12.0107           0
   14000 O1   8    DMPC H2X  HAL2   0.090000        1.0079           0
   14001 O1   8    DMPC H2Y  HAL2   0.090000        1.0079           0
   14002 O1   8    DMPC C23  CTL2  -0.180000       12.0107           0
   14003 O1   8    DMPC H3R  HAL2   0.090000        1.0079           0
   14004 O1   8    DMPC H3S  HAL2   0.090000        1.0079           0
   14005 O1   8    DMPC C24  CTL2  -0.180000       12.0107           0
   14006 O1   8    DMPC H4R  HAL2   0.090000        1.0079           0
   14007 O1   8    DMPC H4S  HAL2   0.090000        1.0079           0
   14008 O1   8    DMPC C25  CTL2  -0.180000       12.0107           0
   14009 O1   8    DMPC H5R  HAL2   0.090000        1.0079           0
   14010 O1   8    DMPC H5S  HAL2   0.090000        1.0079           0
   14011 O1   8    DMPC C26  CTL2  -0.180000       12.0107           0
   14012 O1   8    DMPC H6R  HAL2   0.090000        1.0079           0
   14013 O1   8    DMPC H6S  HAL2   0.090000        1.0079           0
   14014 O1   8    DMPC C27  CTL2  -0.180000       12.0107           0
   14015 O1   8    DMPC H7R  HAL2   0.090000        1.0079           0
   14016 O1   8    DMPC H7S  HAL2   0.090000        1.0079           0
   14017 O1   8    DMPC C28  CTL2  -0.180000       12.0107           0
   14018 O1   8    DMPC H8R  HAL2   0.090000        1.0079           0
   14019 O1   8    DMPC H8S  HAL2   0.090000        1.0079           0
   14020 O1   8    DMPC C29  CTL2  -0.180000       12.0107           0
   14021 O1   8    DMPC H9R  HAL2   0.090000        1.0079           0
   14022 O1   8    DMPC H9S  HAL2   0.090000        1.0079           0
   14023 O1   8    DMPC C210 CTL2  -0.180000       12.0107           0
   14024 O1   8    DMPC H10R HAL2   0.090000        1.0079           0
   14025 O1   8    DMPC H10S HAL2   0.090000        1.0079           0
   14026 O1   8    DMPC C211 CTL2  -0.180000       12.0107           0
   14027 O1   8    DMPC H11R HAL2   0.090000        1.0079           0
   14028 O1   8    DMPC H11S HAL2   0.090000        1.0079           0
   14029 O1   8    DMPC C212 CTL2  -0.180000       12.0107           0
   14030 O1   8    DMPC H12R HAL2   0.090000        1.0079           0
   14031 O1   8    DMPC H12S HAL2   0.090000        1.0079           0
   14032 O1   8    DMPC C213 CTL2  -0.180000       12.0107           0
   14033 O1   8    DMPC H13R HAL2   0.090000        1.0079           0
   14034 O1   8    DMPC H13S HAL2   0.090000        1.0079           0
   14035 O1   8    DMPC C214 CTL3  -0.270000       12.0107           0
   14036 O1   8    DMPC H14R HAL3   0.090000        1.0079           0
   14037 O1   8    DMPC H14S HAL3   0.090000        1.0079           0
   14038 O1   8    DMPC H14T HAL3   0.090000        1.0079           0
   14039 O1   8    DMPC C33  CTL2  -0.180000       12.0107           0
   14040 O1   8    DMPC H3X  HAL2   0.090000        1.0079           0
   14041 O1   8    DMPC H3Y  HAL2   0.090000        1.0079           0
   14042 O1   8    DMPC C34  CTL2  -0.180000       12.0107           0
   14043 O1   8    DMPC H4X  HAL2   0.090000        1.0079           0
   14044 O1   8    DMPC H4Y  HAL2   0.090000        1.0079           0
   14045 O1   8    DMPC C35  CTL2  -0.180000       12.0107           0
   14046 O1   8    DMPC H5X  HAL2   0.090000        1.0079           0
   14047 O1   8    DMPC H5Y  HAL2   0.090000        1.0079           0
   14048 O1   8    DMPC C36  CTL2  -0.180000       12.0107           0
   14049 O1   8    DMPC H6X  HAL2   0.090000        1.0079           0
   14050 O1   8    DMPC H6Y  HAL2   0.090000        1.0079           0
   14051 O1   8    DMPC C37  CTL2  -0.180000       12.0107           0
   14052 O1   8    DMPC H7X  HAL2   0.090000        1.0079           0
   14053 O1   8    DMPC H7Y  HAL2   0.090000        1.0079           0
   14054 O1   8    DMPC C38  CTL2  -0.180000       12.0107           0
   14055 O1   8    DMPC H8X  HAL2   0.090000        1.0079           0
   14056 O1   8    DMPC H8Y  HAL2   0.090000        1.0079           0
   14057 O1   8    DMPC C39  CTL2  -0.180000       12.0107           0
   14058 O1   8    DMPC H9X  HAL2   0.090000        1.0079           0
   14059 O1   8    DMPC H9Y  HAL2   0.090000        1.0079           0
   14060 O1   8    DMPC C310 CTL2  -0.180000       12.0107           0
   14061 O1   8    DMPC H10X HAL2   0.090000        1.0079           0
   14062 O1   8    DMPC H10Y HAL2   0.090000        1.0079           0
   14063 O1   8    DMPC C311 CTL2  -0.180000       12.0107           0
   14064 O1   8    DMPC H11X HAL2   0.090000        1.0079           0
   14065 O1   8    DMPC H11Y HAL2   0.090000        1.0079           0
   14066 O1   8    DMPC C312 CTL2  -0.180000       12.0107           0
   14067 O1   8    DMPC H12X HAL2   0.090000        1.0079           0
   14068 O1   8    DMPC H12Y HAL2   0.090000        1.0079           0
   14069 O1   8    DMPC C313 CTL2  -0.180000       12.0107           0
   14070 O1   8    DMPC H13X HAL2   0.090000        1.0079           0
   14071 O1   8    DMPC H13Y HAL2   0.090000        1.0079           0
   14072 O1   8    DMPC C314 CTL3  -0.270000       12.0107           0
   14073 O1   8    DMPC H14X HAL3   0.090000        1.0079           0
   14074 O1   8    DMPC H14Y HAL3   0.090000        1.0079           0
   14075 O1   8    DMPC H14Z HAL3   0.090000        1.0079           0
   14076 O1   9    DMPC N    NTL   -0.600000       14.0067           0
   14077 O1   9    DMPC C13  CTL5  -0.350000       12.0107           0
   14078 O1   9    DMPC H13A HL     0.250000        1.0079           0
   14079 O1   9    DMPC H13B HL     0.250000        1.0079           0
   14080 O1   9    DMPC H13C HL     0.250000        1.0079           0
   14081 O1   9    DMPC C14  CTL5  -0.350000       12.0107           0
   14082 O1   9    DMPC H14A HL     0.250000        1.0079           0
   14083 O1   9    DMPC H14B HL     0.250000        1.0079           0
   14084 O1   9    DMPC H14C HL     0.250000        1.0079           0
   14085 O1   9    DMPC C15  CTL5  -0.350000       12.0107           0
   14086 O1   9    DMPC H15A HL     0.250000        1.0079           0
   14087 O1   9    DMPC H15B HL     0.250000        1.0079           0
   14088 O1   9    DMPC H15C HL     0.250000        1.0079           0
   14089 O1   9    DMPC C12  CTL2  -0.100000       12.0107           0
   14090 O1   9    DMPC H12A HL     0.250000        1.0079           0
   14091 O1   9    DMPC H12B HL     0.250000        1.0079           0
   14092 O1   9    DMPC C11  CTL2  -0.080000       12.0107           0
   14093 O1   9    DMPC H11A HAL2   0.090000        1.0079           0
   14094 O1   9    DMPC H11B HAL2   0.090000        1.0079           0
   14095 O1   9    DMPC P    PL     1.500000       30.9738           0
   14096 O1   9    DMPC O13  O2L   -0.780000       15.9994           0
   14097 O1   9    DMPC O14  O2L   -0.780000       15.9994           0
   14098 O1   9    DMPC O11  OSLP  -0.570000       15.9994           0
   14099 O1   9    DMPC O12  OSLP  -0.570000       15.9994           0
   14100 O1   9    DMPC C1   CTL2  -0.080000       12.0107           0
   14101 O1   9    DMPC HA   HAL2   0.090000        1.0079           0
   14102 O1   9    DMPC HB   HAL2   0.090000        1.0079           0
   14103 O1   9    DMPC C2   CTL1   0.170000       12.0107           0
   14104 O1   9    DMPC HS   HAL1   0.090000        1.0079           0
   14105 O1   9    DMPC O21  OSL   -0.490000       15.9994           0
   14106 O1   9    DMPC C21  CL     0.900000       12.0107           0
   14107 O1   9    DMPC O22  OBL   -0.630000       15.9994           0
   14108 O1   9    DMPC C22  CTL2  -0.220000       12.0107           0
   14109 O1   9    DMPC H2R  HAL2   0.090000        1.0079           0
   14110 O1   9    DMPC H2S  HAL2   0.090000        1.0079           0
   14111 O1   9    DMPC C3   CTL2   0.080000       12.0107           0
   14112 O1   9    DMPC HX   HAL2   0.090000        1.0079           0
   14113 O1   9    DMPC HY   HAL2   0.090000        1.0079           0
   14114 O1   9    DMPC O31  OSL   -0.490000       15.9994           0
   14115 O1   9    DMPC C31  CL     0.900000       12.0107           0
   14116 O1   9    DMPC O32  OBL   -0.630000       15.9994           0
   14117 O1   9    DMPC C32  CTL2  -0.220000       12.0107           0
   14118 O1   9    DMPC H2X  HAL2   0.090000        1.0079           0
   14119 O1   9    DMPC H2Y  HAL2   0.090000        1.0079           0
   14120 O1   9    DMPC C23  CTL2  -0.180000       12.0107           0
   14121 O1   9    DMPC H3R  HAL2   0.090000        1.0079           0
   14122 O1   9    DMPC H3S  HAL2   0.090000        1.0079           0
   14123 O1   9    DMPC C24  CTL2  -0.180000       12.0107           0
   14124 O1   9    DMPC H4R  HAL2   0.090000        1.0079           0
   14125 O1   9    DMPC H4S  HAL2   0.090000        1.0079           0
   14126 O1   9    DMPC C25  CTL2  -0.180000       12.0107           0
   14127 O1   9    DMPC H5R  HAL2   0.090000        1.0079           0
   14128 O1   9    DMPC H5S  HAL2   0.090000        1.0079           0
   14129 O1   9    DMPC C26  CTL2  -0.180000       12.0107           0
   14130 O1   9    DMPC H6R  HAL2   0.090000        1.0079           0
   14131 O1   9    DMPC H6S  HAL2   0.090000        1.0079           0
   14132 O1   9    DMPC C27  CTL2  -0.180000       12.0107           0
   14133 O1   9    DMPC H7R  HAL2   0.090000        1.0079           0
   14134 O1   9    DMPC H7S  HAL2   0.090000        1.0079           0
   14135 O1   9    DMPC C28  CTL2  -0.180000       12.0107           0
   14136 O1   9    DMPC H8R  HAL2   0.090000        1.0079           0
   14137 O1   9    DMPC H8S  HAL2   0.090000        1.0079           0
   14138 O1   9    DMPC C29  CTL2  -0.180000       12.0107           0
   14139 O1   9    DMPC H9R  HAL2   0.090000        1.0079           0
   14140 O1   9    DMPC H9S  HAL2   0.090000        1.0079           0
   14141 O1   9    DMPC C210 CTL2  -0.180000       12.0107           0
   14142 O1   9    DMPC H10R HAL2   0.090000        1.0079           0
   14143 O1   9    DMPC H10S HAL2   0.090000        1.0079           0
   14144 O1   9    DMPC C211 CTL2  -0.180000       12.0107           0
   14145 O1   9    DMPC H11R HAL2   0.090000        1.0079           0
   14146 O1   9    DMPC H11S HAL2   0.090000        1.0079           0
   14147 O1   9    DMPC C212 CTL2  -0.180000       12.0107           0
   14148 O1   9    DMPC H12R HAL2   0.090000        1.0079           0
   14149 O1   9    DMPC H12S HAL2   0.090000        1.0079           0
   14150 O1   9    DMPC C213 CTL2  -0.180000       12.0107           0
   14151 O1   9    DMPC H13R HAL2   0.090000        1.0079           0
   14152 O1   9    DMPC H13S HAL2   0.090000        1.0079           0
   14153 O1   9    DMPC C214 CTL3  -0.270000       12.0107           0
   14154 O1   9    DMPC H14R HAL3   0.090000        1.0079           0
   14155 O1   9    DMPC H14S HAL3   0.090000        1.0079           0
   14156 O1   9    DMPC H14T HAL3   0.090000        1.0079           0
   14157 O1   9    DMPC C33  CTL2  -0.180000       12.0107           0
   14158 O1   9    DMPC H3X  HAL2   0.090000        1.0079           0
   14159 O1   9    DMPC H3Y  HAL2   0.090000        1.0079           0
   14160 O1   9    DMPC C34  CTL2  -0.180000       12.0107           0
   14161 O1   9    DMPC H4X  HAL2   0.090000        1.0079           0
   14162 O1   9    DMPC H4Y  HAL2   0.090000        1.0079           0
   14163 O1   9    DMPC C35  CTL2  -0.180000       12.0107           0
   14164 O1   9    DMPC H5X  HAL2   0.090000        1.0079           0
   14165 O1   9    DMPC H5Y  HAL2   0.090000        1.0079           0
   14166 O1   9    DMPC C36  CTL2  -0.180000       12.0107           0
   14167 O1   9    DMPC H6X  HAL2   0.090000        1.0079           0
   14168 O1   9    DMPC H6Y  HAL2   0.090000        1.0079           0
   14169 O1   9    DMPC C37  CTL2  -0.180000       12.0107           0
   14170 O1   9    DMPC H7X  HAL2   0.090000        1.0079           0
   14171 O1   9    DMPC H7Y  HAL2   0.090000        1.0079           0
   14172 O1   9    DMPC C38  CTL2  -0.180000       12.0107           0
   14173 O1   9    DMPC H8X  HAL2   0.090000        1.0079           0
   14174 O1   9    DMPC H8Y  HAL2   0.090000        1.0079           0
   14175 O1   9    DMPC C39  CTL2  -0.180000       12.0107           0
   14176 O1   9    DMPC H9X  HAL2   0.090000        1.0079           0
   14177 O1   9    DMPC H9Y  HAL2   0.090000        1.0079           0
   14178 O1   9    DMPC C310 CTL2  -0.180000       12.0107           0
   14179 O1   9    DMPC H10X HAL2   0.090000        1.0079           0
   14180 O1   9    DMPC H10Y HAL2   0.090000        1.0079           0
   14181 O1   9    DMPC C311 CTL2  -0.180000       12.0107           0
   14182 O1   9    DMPC H11X HAL2   0.090000        1.0079           0
   14183 O1   9    DMPC H11Y HAL2   0.090000        1.0079           0
   14184 O1   9    DMPC C312 CTL2  -0.180000       12.0107           0
   14185 O1   9    DMPC H12X HAL2   0.090000        1.0079           0
   14186 O1   9    DMPC H12Y HAL2   0.090000        1.0079           0
   14187 O1   9    DMPC C313 CTL2  -0.180000       12.0107           0
   14188 O1   9    DMPC H13X HAL2   0.090000        1.0079           0
   14189 O1   9    DMPC H13Y HAL2   0.090000        1.0079           0
   14190 O1   9    DMPC C314 CTL3  -0.270000       12.0107           0
   14191 O1   9    DMPC H14X HAL3   0.090000        1.0079           0
   14192 O1   9    DMPC H14Y HAL3   0.090000        1.0079           0
   14193 O1   9    DMPC H14Z HAL3   0.090000        1.0079           0
   14194 O1   10   DMPC N    NTL   -0.600000       14.0067           0
   14195 O1   10   DMPC C13  CTL5  -0.350000       12.0107           0
   14196 O1   10   DMPC H13A HL     0.250000        1.0079           0
   14197 O1   10   DMPC H13B HL     0.250000        1.0079           0
   14198 O1   10   DMPC H13C HL     0.250000        1.0079           0
   14199 O1   10   DMPC C14  CTL5  -0.350000       12.0107           0
   14200 O1   10   DMPC H14A HL     0.250000        1.0079           0
   14201 O1   10   DMPC H14B HL     0.250000        1.0079           0
   14202 O1   10   DMPC H14C HL     0.250000        1.0079           0
   14203 O1   10   DMPC C15  CTL5  -0.350000       12.0107           0
   14204 O1   10   DMPC H15A HL     0.250000        1.0079           0
   14205 O1   10   DMPC H15B HL     0.250000        1.0079           0
   14206 O1   10   DMPC H15C HL     0.250000        1.0079           0
   14207 O1   10   DMPC C12  CTL2  -0.100000       12.0107           0
   14208 O1   10   DMPC H12A HL     0.250000        1.0079           0
   14209 O1   10   DMPC H12B HL     0.250000        1.0079           0
   14210 O1   10   DMPC C11  CTL2  -0.080000       12.0107           0
   14211 O1   10   DMPC H11A HAL2   0.090000        1.0079           0
   14212 O1   10   DMPC H11B HAL2   0.090000        1.0079           0
   14213 O1   10   DMPC P    PL     1.500000       30.9738           0
   14214 O1   10   DMPC O13  O2L   -0.780000       15.9994           0
   14215 O1   10   DMPC O14  O2L   -0.780000       15.9994           0
   14216 O1   10   DMPC O11  OSLP  -0.570000       15.9994           0
   14217 O1   10   DMPC O12  OSLP  -0.570000       15.9994           0
   14218 O1   10   DMPC C1   CTL2  -0.080000       12.0107           0
   14219 O1   10   DMPC HA   HAL2   0.090000        1.0079           0
   14220 O1   10   DMPC HB   HAL2   0.090000        1.0079           0
   14221 O1   10   DMPC C2   CTL1   0.170000       12.0107           0
   14222 O1   10   DMPC HS   HAL1   0.090000        1.0079           0
   14223 O1   10   DMPC O21  OSL   -0.490000       15.9994           0
   14224 O1   10   DMPC C21  CL     0.900000       12.0107           0
   14225 O1   10   DMPC O22  OBL   -0.630000       15.9994           0
   14226 O1   10   DMPC C22  CTL2  -0.220000       12.0107           0
   14227 O1   10   DMPC H2R  HAL2   0.090000        1.0079           0
   14228 O1   10   DMPC H2S  HAL2   0.090000        1.0079           0
   14229 O1   10   DMPC C3   CTL2   0.080000       12.0107           0
   14230 O1   10   DMPC HX   HAL2   0.090000        1.0079           0
   14231 O1   10   DMPC HY   HAL2   0.090000        1.0079           0
   14232 O1   10   DMPC O31  OSL   -0.490000       15.9994           0
   14233 O1   10   DMPC C31  CL     0.900000       12.0107           0
   14234 O1   10   DMPC O32  OBL   -0.630000       15.9994           0
   14235 O1   10   DMPC C32  CTL2  -0.220000       12.0107           0
   14236 O1   10   DMPC H2X  HAL2   0.090000        1.0079           0
   14237 O1   10   DMPC H2Y  HAL2   0.090000        1.0079           0
   14238 O1   10   DMPC C23  CTL2  -0.180000       12.0107           0
   14239 O1   10   DMPC H3R  HAL2   0.090000        1.0079           0
   14240 O1   10   DMPC H3S  HAL2   0.090000        1.0079           0
   14241 O1   10   DMPC C24  CTL2  -0.180000       12.0107           0
   14242 O1   10   DMPC H4R  HAL2   0.090000        1.0079           0
   14243 O1   10   DMPC H4S  HAL2   0.090000        1.0079           0
   14244 O1   10   DMPC C25  CTL2  -0.180000       12.0107           0
   14245 O1   10   DMPC H5R  HAL2   0.090000        1.0079           0
   14246 O1   10   DMPC H5S  HAL2   0.090000        1.0079           0
   14247 O1   10   DMPC C26  CTL2  -0.180000       12.0107           0
   14248 O1   10   DMPC H6R  HAL2   0.090000        1.0079           0
   14249 O1   10   DMPC H6S  HAL2   0.090000        1.0079           0
   14250 O1   10   DMPC C27  CTL2  -0.180000       12.0107           0
   14251 O1   10   DMPC H7R  HAL2   0.090000        1.0079           0
   14252 O1   10   DMPC H7S  HAL2   0.090000        1.0079           0
   14253 O1   10   DMPC C28  CTL2  -0.180000       12.0107           0
   14254 O1   10   DMPC H8R  HAL2   0.090000        1.0079           0
   14255 O1   10   DMPC H8S  HAL2   0.090000        1.0079           0
   14256 O1   10   DMPC C29  CTL2  -0.180000       12.0107           0
   14257 O1   10   DMPC H9R  HAL2   0.090000        1.0079           0
   14258 O1   10   DMPC H9S  HAL2   0.090000        1.0079           0
   14259 O1   10   DMPC C210 CTL2  -0.180000       12.0107           0
   14260 O1   10   DMPC H10R HAL2   0.090000        1.0079           0
   14261 O1   10   DMPC H10S HAL2   0.090000        1.0079           0
   14262 O1   10   DMPC C211 CTL2  -0.180000       12.0107           0
   14263 O1   10   DMPC H11R HAL2   0.090000        1.0079           0
   14264 O1   10   DMPC H11S HAL2   0.090000        1.0079           0
   14265 O1   10   DMPC C212 CTL2  -0.180000       12.0107           0
   14266 O1   10   DMPC H12R HAL2   0.090000        1.0079           0
   14267 O1   10   DMPC H12S HAL2   0.090000        1.0079           0
   14268 O1   10   DMPC C213 CTL2  -0.180000       12.0107           0
   14269 O1   10   DMPC H13R HAL2   0.090000        1.0079           0
   14270 O1   10   DMPC H13S HAL2   0.090000        1.0079           0
   14271 O1   10   DMPC C214 CTL3  -0.270000       12.0107           0
   14272 O1   10   DMPC H14R HAL3   0.090000        1.0079           0
   14273 O1   10   DMPC H14S HAL3   0.090000        1.0079           0
   14274 O1   10   DMPC H14T HAL3   0.090000        1.0079           0
   14275 O1   10   DMPC C33  CTL2  -0.180000       12.0107           0
   14276 O1   10   DMPC H3X  HAL2   0.090000        1.0079           0
   14277 O1   10   DMPC H3Y  HAL2   0.090000        1.0079           0
   14278 O1   10   DMPC C34  CTL2  -0.180000       12.0107           0
   14279 O1   10   DMPC H4X  HAL2   0.090000        1.0079           0
   14280 O1   10   DMPC H4Y  HAL2   0.090000        1.0079           0
   14281 O1   10   DMPC C35  CTL2  -0.180000       12.0107           0
   14282 O1   10   DMPC H5X  HAL2   0.090000        1.0079           0
   14283 O1   10   DMPC H5Y  HAL2   0.090000        1.0079           0
   14284 O1   10   DMPC C36  CTL2  -0.180000       12.0107           0
   14285 O1   10   DMPC H6X  HAL2   0.090000        1.0079           0
   14286 O1   10   DMPC H6Y  HAL2   0.090000        1.0079           0
   14287 O1   10   DMPC C37  CTL2  -0.180000       12.0107           0
   14288 O1   10   DMPC H7X  HAL2   0.090000        1.0079           0
   14289 O1   10   DMPC H7Y  HAL2   0.090000        1.0079           0
   14290 O1   10   DMPC C38  CTL2  -0.180000       12.0107           0
   14291 O1   10   DMPC H8X  HAL2   0.090000        1.0079           0
   14292 O1   10   DMPC H8Y  HAL2   0.090000        1.0079           0
   14293 O1   10   DMPC C39  CTL2  -0.180000       12.0107           0
   14294 O1   10   DMPC H9X  HAL2   0.090000        1.0079           0
   14295 O1   10   DMPC H9Y  HAL2   0.090000        1.0079           0
   14296 O1   10   DMPC C310 CTL2  -0.180000       12.0107           0
   14297 O1   10   DMPC H10X HAL2   0.090000        1.0079           0
   14298 O1   10   DMPC H10Y HAL2   0.090000        1.0079           0
   14299 O1   10   DMPC C311 CTL2  -0.180000       12.0107           0
   14300 O1   10   DMPC H11X HAL2   0.090000        1.0079           0
   14301 O1   10   DMPC H11Y HAL2   0.090000        1.0079           0
   14302 O1   10   DMPC C312 CTL2  -0.180000       12.0107           0
   14303 O1   10   DMPC H12X HAL2   0.090000        1.0079           0
   14304 O1   10   DMPC H12Y HAL2   0.090000        1.0079           0
   14305 O1   10   DMPC C313 CTL2  -0.180000       12.0107           0
   14306 O1   10   DMPC H13X HAL2   0.090000        1.0079           0
   14307 O1   10   DMPC H13Y HAL2   0.090000        1.0079           0
   14308 O1   10   DMPC C314 CTL3  -0.270000       12.0107           0
   14309 O1   10   DMPC H14X HAL3   0.090000        1.0079           0
   14310 O1   10   DMPC H14Y HAL3   0.090000        1.0079           0
   14311 O1   10   DMPC H14Z HAL3   0.090000        1.0079           0
   14312 O1   11   DMPC N    NTL   -0.600000       14.0067           0
   14313 O1   11   DMPC C13  CTL5  -0.350000       12.0107           0
   14314 O1   11   DMPC H13A HL     0.250000        1.0079           0
   14315 O1   11   DMPC H13B HL     0.250000        1.0079           0
   14316 O1   11   DMPC H13C HL     0.250000        1.0079           0
   14317 O1   11   DMPC C14  CTL5  -0.350000       12.0107           0
   14318 O1   11   DMPC H14A HL     0.250000        1.0079           0
   14319 O1   11   DMPC H14B HL     0.250000        1.0079           0
   14320 O1   11   DMPC H14C HL     0.250000        1.0079           0
   14321 O1   11   DMPC C15  CTL5  -0.350000       12.0107           0
   14322 O1   11   DMPC H15A HL     0.250000        1.0079           0
   14323 O1   11   DMPC H15B HL     0.250000        1.0079           0
   14324 O1   11   DMPC H15C HL     0.250000        1.0079           0
   14325 O1   11   DMPC C12  CTL2  -0.100000       12.0107           0
   14326 O1   11   DMPC H12A HL     0.250000        1.0079           0
   14327 O1   11   DMPC H12B HL     0.250000        1.0079           0
   14328 O1   11   DMPC C11  CTL2  -0.080000       12.0107           0
   14329 O1   11   DMPC H11A HAL2   0.090000        1.0079           0
   14330 O1   11   DMPC H11B HAL2   0.090000        1.0079           0
   14331 O1   11   DMPC P    PL     1.500000       30.9738           0
   14332 O1   11   DMPC O13  O2L   -0.780000       15.9994           0
   14333 O1   11   DMPC O14  O2L   -0.780000       15.9994           0
   14334 O1   11   DMPC O11  OSLP  -0.570000       15.9994           0
   14335 O1   11   DMPC O12  OSLP  -0.570000       15.9994           0
   14336 O1   11   DMPC C1   CTL2  -0.080000       12.0107           0
   14337 O1   11   DMPC HA   HAL2   0.090000        1.0079           0
   14338 O1   11   DMPC HB   HAL2   0.090000        1.0079           0
   14339 O1   11   DMPC C2   CTL1   0.170000       12.0107           0
   14340 O1   11   DMPC HS   HAL1   0.090000        1.0079           0
   14341 O1   11   DMPC O21  OSL   -0.490000       15.9994           0
   14342 O1   11   DMPC C21  CL     0.900000       12.0107           0
   14343 O1   11   DMPC O22  OBL   -0.630000       15.9994           0
   14344 O1   11   DMPC C22  CTL2  -0.220000       12.0107           0
   14345 O1   11   DMPC H2R  HAL2   0.090000        1.0079           0
   14346 O1   11   DMPC H2S  HAL2   0.090000        1.0079           0
   14347 O1   11   DMPC C3   CTL2   0.080000       12.0107           0
   14348 O1   11   DMPC HX   HAL2   0.090000        1.0079           0
   14349 O1   11   DMPC HY   HAL2   0.090000        1.0079           0
   14350 O1   11   DMPC O31  OSL   -0.490000       15.9994           0
   14351 O1   11   DMPC C31  CL     0.900000       12.0107           0
   14352 O1   11   DMPC O32  OBL   -0.630000       15.9994           0
   14353 O1   11   DMPC C32  CTL2  -0.220000       12.0107           0
   14354 O1   11   DMPC H2X  HAL2   0.090000        1.0079           0
   14355 O1   11   DMPC H2Y  HAL2   0.090000        1.0079           0
   14356 O1   11   DMPC C23  CTL2  -0.180000       12.0107           0
   14357 O1   11   DMPC H3R  HAL2   0.090000        1.0079           0
   14358 O1   11   DMPC H3S  HAL2   0.090000        1.0079           0
   14359 O1   11   DMPC C24  CTL2  -0.180000       12.0107           0
   14360 O1   11   DMPC H4R  HAL2   0.090000        1.0079           0
   14361 O1   11   DMPC H4S  HAL2   0.090000        1.0079           0
   14362 O1   11   DMPC C25  CTL2  -0.180000       12.0107           0
   14363 O1   11   DMPC H5R  HAL2   0.090000        1.0079           0
   14364 O1   11   DMPC H5S  HAL2   0.090000        1.0079           0
   14365 O1   11   DMPC C26  CTL2  -0.180000       12.0107           0
   14366 O1   11   DMPC H6R  HAL2   0.090000        1.0079           0
   14367 O1   11   DMPC H6S  HAL2   0.090000        1.0079           0
   14368 O1   11   DMPC C27  CTL2  -0.180000       12.0107           0
   14369 O1   11   DMPC H7R  HAL2   0.090000        1.0079           0
   14370 O1   11   DMPC H7S  HAL2   0.090000        1.0079           0
   14371 O1   11   DMPC C28  CTL2  -0.180000       12.0107           0
   14372 O1   11   DMPC H8R  HAL2   0.090000        1.0079           0
   14373 O1   11   DMPC H8S  HAL2   0.090000        1.0079           0
   14374 O1   11   DMPC C29  CTL2  -0.180000       12.0107           0
   14375 O1   11   DMPC H9R  HAL2   0.090000        1.0079           0
   14376 O1   11   DMPC H9S  HAL2   0.090000        1.0079           0
   14377 O1   11   DMPC C210 CTL2  -0.180000       12.0107           0
   14378 O1   11   DMPC H10R HAL2   0.090000        1.0079           0
   14379 O1   11   DMPC H10S HAL2   0.090000        1.0079           0
   14380 O1   11   DMPC C211 CTL2  -0.180000       12.0107           0
   14381 O1   11   DMPC H11R HAL2   0.090000        1.0079           0
   14382 O1   11   DMPC H11S HAL2   0.090000        1.0079           0
   14383 O1   11   DMPC C212 CTL2  -0.180000       12.0107           0
   14384 O1   11   DMPC H12R HAL2   0.090000        1.0079           0
   14385 O1   11   DMPC H12S HAL2   0.090000        1.0079           0
   14386 O1   11   DMPC C213 CTL2  -0.180000       12.0107           0
   14387 O1   11   DMPC H13R HAL2   0.090000        1.0079           0
   14388 O1   11   DMPC H13S HAL2   0.090000        1.0079           0
   14389 O1   11   DMPC C214 CTL3  -0.270000       12.0107           0
   14390 O1   11   DMPC H14R HAL3   0.090000        1.0079           0
   14391 O1   11   DMPC H14S HAL3   0.090000        1.0079           0
   14392 O1   11   DMPC H14T HAL3   0.090000        1.0079           0
   14393 O1   11   DMPC C33  CTL2  -0.180000       12.0107           0
   14394 O1   11   DMPC H3X  HAL2   0.090000        1.0079           0
   14395 O1   11   DMPC H3Y  HAL2   0.090000        1.0079           0
   14396 O1   11   DMPC C34  CTL2  -0.180000       12.0107           0
   14397 O1   11   DMPC H4X  HAL2   0.090000        1.0079           0
   14398 O1   11   DMPC H4Y  HAL2   0.090000        1.0079           0
   14399 O1   11   DMPC C35  CTL2  -0.180000       12.0107           0
   14400 O1   11   DMPC H5X  HAL2   0.090000        1.0079           0
   14401 O1   11   DMPC H5Y  HAL2   0.090000        1.0079           0
   14402 O1   11   DMPC C36  CTL2  -0.180000       12.0107           0
   14403 O1   11   DMPC H6X  HAL2   0.090000        1.0079           0
   14404 O1   11   DMPC H6Y  HAL2   0.090000        1.0079           0
   14405 O1   11   DMPC C37  CTL2  -0.180000       12.0107           0
   14406 O1   11   DMPC H7X  HAL2   0.090000        1.0079           0
   14407 O1   11   DMPC H7Y  HAL2   0.090000        1.0079           0
   14408 O1   11   DMPC C38  CTL2  -0.180000       12.0107           0
   14409 O1   11   DMPC H8X  HAL2   0.090000        1.0079           0
   14410 O1   11   DMPC H8Y  HAL2   0.090000        1.0079           0
   14411 O1   11   DMPC C39  CTL2  -0.180000       12.0107           0
   14412 O1   11   DMPC H9X  HAL2   0.090000        1.0079           0
   14413 O1   11   DMPC H9Y  HAL2   0.090000        1.0079           0
   14414 O1   11   DMPC C310 CTL2  -0.180000       12.0107           0
   14415 O1   11   DMPC H10X HAL2   0.090000        1.0079           0
   14416 O1   11   DMPC H10Y HAL2   0.090000        1.0079           0
   14417 O1   11   DMPC C311 CTL2  -0.180000       12.0107           0
   14418 O1   11   DMPC H11X HAL2   0.090000        1.0079           0
   14419 O1   11   DMPC H11Y HAL2   0.090000        1.0079           0
   14420 O1   11   DMPC C312 CTL2  -0.180000       12.0107           0
   14421 O1   11   DMPC H12X HAL2   0.090000        1.0079           0
   14422 O1   11   DMPC H12Y HAL2   0.090000        1.0079           0
   14423 O1   11   DMPC C313 CTL2  -0.180000       12.0107           0
   14424 O1   11   DMPC H13X HAL2   0.090000        1.0079           0
   14425 O1   11   DMPC H13Y HAL2   0.090000        1.0079           0
   14426 O1   11   DMPC C314 CTL3  -0.270000       12.0107           0
   14427 O1   11   DMPC H14X HAL3   0.090000        1.0079           0
   14428 O1   11   DMPC H14Y HAL3   0.090000        1.0079           0
   14429 O1   11   DMPC H14Z HAL3   0.090000        1.0079           0
   14430 O1   12   DMPC N    NTL   -0.600000       14.0067           0
   14431 O1   12   DMPC C13  CTL5  -0.350000       12.0107           0
   14432 O1   12   DMPC H13A HL     0.250000        1.0079           0
   14433 O1   12   DMPC H13B HL     0.250000        1.0079           0
   14434 O1   12   DMPC H13C HL     0.250000        1.0079           0
   14435 O1   12   DMPC C14  CTL5  -0.350000       12.0107           0
   14436 O1   12   DMPC H14A HL     0.250000        1.0079           0
   14437 O1   12   DMPC H14B HL     0.250000        1.0079           0
   14438 O1   12   DMPC H14C HL     0.250000        1.0079           0
   14439 O1   12   DMPC C15  CTL5  -0.350000       12.0107           0
   14440 O1   12   DMPC H15A HL     0.250000        1.0079           0
   14441 O1   12   DMPC H15B HL     0.250000        1.0079           0
   14442 O1   12   DMPC H15C HL     0.250000        1.0079           0
   14443 O1   12   DMPC C12  CTL2  -0.100000       12.0107           0
   14444 O1   12   DMPC H12A HL     0.250000        1.0079           0
   14445 O1   12   DMPC H12B HL     0.250000        1.0079           0
   14446 O1   12   DMPC C11  CTL2  -0.080000       12.0107           0
   14447 O1   12   DMPC H11A HAL2   0.090000        1.0079           0
   14448 O1   12   DMPC H11B HAL2   0.090000        1.0079           0
   14449 O1   12   DMPC P    PL     1.500000       30.9738           0
   14450 O1   12   DMPC O13  O2L   -0.780000       15.9994           0
   14451 O1   12   DMPC O14  O2L   -0.780000       15.9994           0
   14452 O1   12   DMPC O11  OSLP  -0.570000       15.9994           0
   14453 O1   12   DMPC O12  OSLP  -0.570000       15.9994           0
   14454 O1   12   DMPC C1   CTL2  -0.080000       12.0107           0
   14455 O1   12   DMPC HA   HAL2   0.090000        1.0079           0
   14456 O1   12   DMPC HB   HAL2   0.090000        1.0079           0
   14457 O1   12   DMPC C2   CTL1   0.170000       12.0107           0
   14458 O1   12   DMPC HS   HAL1   0.090000        1.0079           0
   14459 O1   12   DMPC O21  OSL   -0.490000       15.9994           0
   14460 O1   12   DMPC C21  CL     0.900000       12.0107           0
   14461 O1   12   DMPC O22  OBL   -0.630000       15.9994           0
   14462 O1   12   DMPC C22  CTL2  -0.220000       12.0107           0
   14463 O1   12   DMPC H2R  HAL2   0.090000        1.0079           0
   14464 O1   12   DMPC H2S  HAL2   0.090000        1.0079           0
   14465 O1   12   DMPC C3   CTL2   0.080000       12.0107           0
   14466 O1   12   DMPC HX   HAL2   0.090000        1.0079           0
   14467 O1   12   DMPC HY   HAL2   0.090000        1.0079           0
   14468 O1   12   DMPC O31  OSL   -0.490000       15.9994           0
   14469 O1   12   DMPC C31  CL     0.900000       12.0107           0
   14470 O1   12   DMPC O32  OBL   -0.630000       15.9994           0
   14471 O1   12   DMPC C32  CTL2  -0.220000       12.0107           0
   14472 O1   12   DMPC H2X  HAL2   0.090000        1.0079           0
   14473 O1   12   DMPC H2Y  HAL2   0.090000        1.0079           0
   14474 O1   12   DMPC C23  CTL2  -0.180000       12.0107           0
   14475 O1   12   DMPC H3R  HAL2   0.090000        1.0079           0
   14476 O1   12   DMPC H3S  HAL2   0.090000        1.0079           0
   14477 O1   12   DMPC C24  CTL2  -0.180000       12.0107           0
   14478 O1   12   DMPC H4R  HAL2   0.090000        1.0079           0
   14479 O1   12   DMPC H4S  HAL2   0.090000        1.0079           0
   14480 O1   12   DMPC C25  CTL2  -0.180000       12.0107           0
   14481 O1   12   DMPC H5R  HAL2   0.090000        1.0079           0
   14482 O1   12   DMPC H5S  HAL2   0.090000        1.0079           0
   14483 O1   12   DMPC C26  CTL2  -0.180000       12.0107           0
   14484 O1   12   DMPC H6R  HAL2   0.090000        1.0079           0
   14485 O1   12   DMPC H6S  HAL2   0.090000        1.0079           0
   14486 O1   12   DMPC C27  CTL2  -0.180000       12.0107           0
   14487 O1   12   DMPC H7R  HAL2   0.090000        1.0079           0
   14488 O1   12   DMPC H7S  HAL2   0.090000        1.0079           0
   14489 O1   12   DMPC C28  CTL2  -0.180000       12.0107           0
   14490 O1   12   DMPC H8R  HAL2   0.090000        1.0079           0
   14491 O1   12   DMPC H8S  HAL2   0.090000        1.0079           0
   14492 O1   12   DMPC C29  CTL2  -0.180000       12.0107           0
   14493 O1   12   DMPC H9R  HAL2   0.090000        1.0079           0
   14494 O1   12   DMPC H9S  HAL2   0.090000        1.0079           0
   14495 O1   12   DMPC C210 CTL2  -0.180000       12.0107           0
   14496 O1   12   DMPC H10R HAL2   0.090000        1.0079           0
   14497 O1   12   DMPC H10S HAL2   0.090000        1.0079           0
   14498 O1   12   DMPC C211 CTL2  -0.180000       12.0107           0
   14499 O1   12   DMPC H11R HAL2   0.090000        1.0079           0
   14500 O1   12   DMPC H11S HAL2   0.090000        1.0079           0
   14501 O1   12   DMPC C212 CTL2  -0.180000       12.0107           0
   14502 O1   12   DMPC H12R HAL2   0.090000        1.0079           0
   14503 O1   12   DMPC H12S HAL2   0.090000        1.0079           0
   14504 O1   12   DMPC C213 CTL2  -0.180000       12.0107           0
   14505 O1   12   DMPC H13R HAL2   0.090000        1.0079           0
   14506 O1   12   DMPC H13S HAL2   0.090000        1.0079           0
   14507 O1   12   DMPC C214 CTL3  -0.270000       12.0107           0
   14508 O1   12   DMPC H14R HAL3   0.090000        1.0079           0
   14509 O1   12   DMPC H14S HAL3   0.090000        1.0079           0
   14510 O1   12   DMPC H14T HAL3   0.090000        1.0079           0
   14511 O1   12   DMPC C33  CTL2  -0.180000       12.0107           0
   14512 O1   12   DMPC H3X  HAL2   0.090000        1.0079           0
   14513 O1   12   DMPC H3Y  HAL2   0.090000        1.0079           0
   14514 O1   12   DMPC C34  CTL2  -0.180000       12.0107           0
   14515 O1   12   DMPC H4X  HAL2   0.090000        1.0079           0
   14516 O1   12   DMPC H4Y  HAL2   0.090000        1.0079           0
   14517 O1   12   DMPC C35  CTL2  -0.180000       12.0107           0
   14518 O1   12   DMPC H5X  HAL2   0.090000        1.0079           0
   14519 O1   12   DMPC H5Y  HAL2   0.090000        1.0079           0
   14520 O1   12   DMPC C36  CTL2  -0.180000       12.0107           0
   14521 O1   12   DMPC H6X  HAL2   0.090000        1.0079           0
   14522 O1   12   DMPC H6Y  HAL2   0.090000        1.0079           0
   14523 O1   12   DMPC C37  CTL2  -0.180000       12.0107           0
   14524 O1   12   DMPC H7X  HAL2   0.090000        1.0079           0
   14525 O1   12   DMPC H7Y  HAL2   0.090000        1.0079           0
   14526 O1   12   DMPC C38  CTL2  -0.180000       12.0107           0
   14527 O1   12   DMPC H8X  HAL2   0.090000        1.0079           0
   14528 O1   12   DMPC H8Y  HAL2   0.090000        1.0079           0
   14529 O1   12   DMPC C39  CTL2  -0.180000       12.0107           0
   14530 O1   12   DMPC H9X  HAL2   0.090000        1.0079           0
   14531 O1   12   DMPC H9Y  HAL2   0.090000        1.0079           0
   14532 O1   12   DMPC C310 CTL2  -0.180000       12.0107           0
   14533 O1   12   DMPC H10X HAL2   0.090000        1.0079           0
   14534 O1   12   DMPC H10Y HAL2   0.090000        1.0079           0
   14535 O1   12   DMPC C311 CTL2  -0.180000       12.0107           0
   14536 O1   12   DMPC H11X HAL2   0.090000        1.0079           0
   14537 O1   12   DMPC H11Y HAL2   0.090000        1.0079           0
   14538 O1   12   DMPC C312 CTL2  -0.180000       12.0107           0
   14539 O1   12   DMPC H12X HAL2   0.090000        1.0079           0
   14540 O1   12   DMPC H12Y HAL2   0.090000        1.0079           0
   14541 O1   12   DMPC C313 CTL2  -0.180000       12.0107           0
   14542 O1   12   DMPC H13X HAL2   0.090000        1.0079           0
   14543 O1   12   DMPC H13Y HAL2   0.090000        1.0079           0
   14544 O1   12   DMPC C314 CTL3  -0.270000       12.0107           0
   14545 O1   12   DMPC H14X HAL3   0.090000        1.0079           0
   14546 O1   12   DMPC H14Y HAL3   0.090000        1.0079           0
   14547 O1   12   DMPC H14Z HAL3   0.090000        1.0079           0
   14548 O1   13   DMPC N    NTL   -0.600000       14.0067           0
   14549 O1   13   DMPC C13  CTL5  -0.350000       12.0107           0
   14550 O1   13   DMPC H13A HL     0.250000        1.0079           0
   14551 O1   13   DMPC H13B HL     0.250000        1.0079           0
   14552 O1   13   DMPC H13C HL     0.250000        1.0079           0
   14553 O1   13   DMPC C14  CTL5  -0.350000       12.0107           0
   14554 O1   13   DMPC H14A HL     0.250000        1.0079           0
   14555 O1   13   DMPC H14B HL     0.250000        1.0079           0
   14556 O1   13   DMPC H14C HL     0.250000        1.0079           0
   14557 O1   13   DMPC C15  CTL5  -0.350000       12.0107           0
   14558 O1   13   DMPC H15A HL     0.250000        1.0079           0
   14559 O1   13   DMPC H15B HL     0.250000        1.0079           0
   14560 O1   13   DMPC H15C HL     0.250000        1.0079           0
   14561 O1   13   DMPC C12  CTL2  -0.100000       12.0107           0
   14562 O1   13   DMPC H12A HL     0.250000        1.0079           0
   14563 O1   13   DMPC H12B HL     0.250000        1.0079           0
   14564 O1   13   DMPC C11  CTL2  -0.080000       12.0107           0
   14565 O1   13   DMPC H11A HAL2   0.090000        1.0079           0
   14566 O1   13   DMPC H11B HAL2   0.090000        1.0079           0
   14567 O1   13   DMPC P    PL     1.500000       30.9738           0
   14568 O1   13   DMPC O13  O2L   -0.780000       15.9994           0
   14569 O1   13   DMPC O14  O2L   -0.780000       15.9994           0
   14570 O1   13   DMPC O11  OSLP  -0.570000       15.9994           0
   14571 O1   13   DMPC O12  OSLP  -0.570000       15.9994           0
   14572 O1   13   DMPC C1   CTL2  -0.080000       12.0107           0
   14573 O1   13   DMPC HA   HAL2   0.090000        1.0079           0
   14574 O1   13   DMPC HB   HAL2   0.090000        1.0079           0
   14575 O1   13   DMPC C2   CTL1   0.170000       12.0107           0
   14576 O1   13   DMPC HS   HAL1   0.090000        1.0079           0
   14577 O1   13   DMPC O21  OSL   -0.490000       15.9994           0
   14578 O1   13   DMPC C21  CL     0.900000       12.0107           0
   14579 O1   13   DMPC O22  OBL   -0.630000       15.9994           0
   14580 O1   13   DMPC C22  CTL2  -0.220000       12.0107           0
   14581 O1   13   DMPC H2R  HAL2   0.090000        1.0079           0
   14582 O1   13   DMPC H2S  HAL2   0.090000        1.0079           0
   14583 O1   13   DMPC C3   CTL2   0.080000       12.0107           0
   14584 O1   13   DMPC HX   HAL2   0.090000        1.0079           0
   14585 O1   13   DMPC HY   HAL2   0.090000        1.0079           0
   14586 O1   13   DMPC O31  OSL   -0.490000       15.9994           0
   14587 O1   13   DMPC C31  CL     0.900000       12.0107           0
   14588 O1   13   DMPC O32  OBL   -0.630000       15.9994           0
   14589 O1   13   DMPC C32  CTL2  -0.220000       12.0107           0
   14590 O1   13   DMPC H2X  HAL2   0.090000        1.0079           0
   14591 O1   13   DMPC H2Y  HAL2   0.090000        1.0079           0
   14592 O1   13   DMPC C23  CTL2  -0.180000       12.0107           0
   14593 O1   13   DMPC H3R  HAL2   0.090000        1.0079           0
   14594 O1   13   DMPC H3S  HAL2   0.090000        1.0079           0
   14595 O1   13   DMPC C24  CTL2  -0.180000       12.0107           0
   14596 O1   13   DMPC H4R  HAL2   0.090000        1.0079           0
   14597 O1   13   DMPC H4S  HAL2   0.090000        1.0079           0
   14598 O1   13   DMPC C25  CTL2  -0.180000       12.0107           0
   14599 O1   13   DMPC H5R  HAL2   0.090000        1.0079           0
   14600 O1   13   DMPC H5S  HAL2   0.090000        1.0079           0
   14601 O1   13   DMPC C26  CTL2  -0.180000       12.0107           0
   14602 O1   13   DMPC H6R  HAL2   0.090000        1.0079           0
   14603 O1   13   DMPC H6S  HAL2   0.090000        1.0079           0
   14604 O1   13   DMPC C27  CTL2  -0.180000       12.0107           0
   14605 O1   13   DMPC H7R  HAL2   0.090000        1.0079           0
   14606 O1   13   DMPC H7S  HAL2   0.090000        1.0079           0
   14607 O1   13   DMPC C28  CTL2  -0.180000       12.0107           0
   14608 O1   13   DMPC H8R  HAL2   0.090000        1.0079           0
   14609 O1   13   DMPC H8S  HAL2   0.090000        1.0079           0
   14610 O1   13   DMPC C29  CTL2  -0.180000       12.0107           0
   14611 O1   13   DMPC H9R  HAL2   0.090000        1.0079           0
   14612 O1   13   DMPC H9S  HAL2   0.090000        1.0079           0
   14613 O1   13   DMPC C210 CTL2  -0.180000       12.0107           0
   14614 O1   13   DMPC H10R HAL2   0.090000        1.0079           0
   14615 O1   13   DMPC H10S HAL2   0.090000        1.0079           0
   14616 O1   13   DMPC C211 CTL2  -0.180000       12.0107           0
   14617 O1   13   DMPC H11R HAL2   0.090000        1.0079           0
   14618 O1   13   DMPC H11S HAL2   0.090000        1.0079           0
   14619 O1   13   DMPC C212 CTL2  -0.180000       12.0107           0
   14620 O1   13   DMPC H12R HAL2   0.090000        1.0079           0
   14621 O1   13   DMPC H12S HAL2   0.090000        1.0079           0
   14622 O1   13   DMPC C213 CTL2  -0.180000       12.0107           0
   14623 O1   13   DMPC H13R HAL2   0.090000        1.0079           0
   14624 O1   13   DMPC H13S HAL2   0.090000        1.0079           0
   14625 O1   13   DMPC C214 CTL3  -0.270000       12.0107           0
   14626 O1   13   DMPC H14R HAL3   0.090000        1.0079           0
   14627 O1   13   DMPC H14S HAL3   0.090000        1.0079           0
   14628 O1   13   DMPC H14T HAL3   0.090000        1.0079           0
   14629 O1   13   DMPC C33  CTL2  -0.180000       12.0107           0
   14630 O1   13   DMPC H3X  HAL2   0.090000        1.0079           0
   14631 O1   13   DMPC H3Y  HAL2   0.090000        1.0079           0
   14632 O1   13   DMPC C34  CTL2  -0.180000       12.0107           0
   14633 O1   13   DMPC H4X  HAL2   0.090000        1.0079           0
   14634 O1   13   DMPC H4Y  HAL2   0.090000        1.0079           0
   14635 O1   13   DMPC C35  CTL2  -0.180000       12.0107           0
   14636 O1   13   DMPC H5X  HAL2   0.090000        1.0079           0
   14637 O1   13   DMPC H5Y  HAL2   0.090000        1.0079           0
   14638 O1   13   DMPC C36  CTL2  -0.180000       12.0107           0
   14639 O1   13   DMPC H6X  HAL2   0.090000        1.0079           0
   14640 O1   13   DMPC H6Y  HAL2   0.090000        1.0079           0
   14641 O1   13   DMPC C37  CTL2  -0.180000       12.0107           0
   14642 O1   13   DMPC H7X  HAL2   0.090000        1.0079           0
   14643 O1   13   DMPC H7Y  HAL2   0.090000        1.0079           0
   14644 O1   13   DMPC C38  CTL2  -0.180000       12.0107           0
   14645 O1   13   DMPC H8X  HAL2   0.090000        1.0079           0
   14646 O1   13   DMPC H8Y  HAL2   0.090000        1.0079           0
   14647 O1   13   DMPC C39  CTL2  -0.180000       12.0107           0
   14648 O1   13   DMPC H9X  HAL2   0.090000        1.0079           0
   14649 O1   13   DMPC H9Y  HAL2   0.090000        1.0079           0
   14650 O1   13   DMPC C310 CTL2  -0.180000       12.0107           0
   14651 O1   13   DMPC H10X HAL2   0.090000        1.0079           0
   14652 O1   13   DMPC H10Y HAL2   0.090000        1.0079           0
   14653 O1   13   DMPC C311 CTL2  -0.180000       12.0107           0
   14654 O1   13   DMPC H11X HAL2   0.090000        1.0079           0
   14655 O1   13   DMPC H11Y HAL2   0.090000        1.0079           0
   14656 O1   13   DMPC C312 CTL2  -0.180000       12.0107           0
   14657 O1   13   DMPC H12X HAL2   0.090000        1.0079           0
   14658 O1   13   DMPC H12Y HAL2   0.090000        1.0079           0
   14659 O1   13   DMPC C313 CTL2  -0.180000       12.0107           0
   14660 O1   13   DMPC H13X HAL2   0.090000        1.0079           0
   14661 O1   13   DMPC H13Y HAL2   0.090000        1.0079           0
   14662 O1   13   DMPC C314 CTL3  -0.270000       12.0107           0
   14663 O1   13   DMPC H14X HAL3   0.090000        1.0079           0
   14664 O1   13   DMPC H14Y HAL3   0.090000        1.0079           0
   14665 O1   13   DMPC H14Z HAL3   0.090000        1.0079           0
   14666 O1   14   DMPC N    NTL   -0.600000       14.0067           0
   14667 O1   14   DMPC C13  CTL5  -0.350000       12.0107           0
   14668 O1   14   DMPC H13A HL     0.250000        1.0079           0
   14669 O1   14   DMPC H13B HL     0.250000        1.0079           0
   14670 O1   14   DMPC H13C HL     0.250000        1.0079           0
   14671 O1   14   DMPC C14  CTL5  -0.350000       12.0107           0
   14672 O1   14   DMPC H14A HL     0.250000        1.0079           0
   14673 O1   14   DMPC H14B HL     0.250000        1.0079           0
   14674 O1   14   DMPC H14C HL     0.250000        1.0079           0
   14675 O1   14   DMPC C15  CTL5  -0.350000       12.0107           0
   14676 O1   14   DMPC H15A HL     0.250000        1.0079           0
   14677 O1   14   DMPC H15B HL     0.250000        1.0079           0
   14678 O1   14   DMPC H15C HL     0.250000        1.0079           0
   14679 O1   14   DMPC C12  CTL2  -0.100000       12.0107           0
   14680 O1   14   DMPC H12A HL     0.250000        1.0079           0
   14681 O1   14   DMPC H12B HL     0.250000        1.0079           0
   14682 O1   14   DMPC C11  CTL2  -0.080000       12.0107           0
   14683 O1   14   DMPC H11A HAL2   0.090000        1.0079           0
   14684 O1   14   DMPC H11B HAL2   0.090000        1.0079           0
   14685 O1   14   DMPC P    PL     1.500000       30.9738           0
   14686 O1   14   DMPC O13  O2L   -0.780000       15.9994           0
   14687 O1   14   DMPC O14  O2L   -0.780000       15.9994           0
   14688 O1   14   DMPC O11  OSLP  -0.570000       15.9994           0
   14689 O1   14   DMPC O12  OSLP  -0.570000       15.9994           0
   14690 O1   14   DMPC C1   CTL2  -0.080000       12.0107           0
   14691 O1   14   DMPC HA   HAL2   0.090000        1.0079           0
   14692 O1   14   DMPC HB   HAL2   0.090000        1.0079           0
   14693 O1   14   DMPC C2   CTL1   0.170000       12.0107           0
   14694 O1   14   DMPC HS   HAL1   0.090000        1.0079           0
   14695 O1   14   DMPC O21  OSL   -0.490000       15.9994           0
   14696 O1   14   DMPC C21  CL     0.900000       12.0107           0
   14697 O1   14   DMPC O22  OBL   -0.630000       15.9994           0
   14698 O1   14   DMPC C22  CTL2  -0.220000       12.0107           0
   14699 O1   14   DMPC H2R  HAL2   0.090000        1.0079           0
   14700 O1   14   DMPC H2S  HAL2   0.090000        1.0079           0
   14701 O1   14   DMPC C3   CTL2   0.080000       12.0107           0
   14702 O1   14   DMPC HX   HAL2   0.090000        1.0079           0
   14703 O1   14   DMPC HY   HAL2   0.090000        1.0079           0
   14704 O1   14   DMPC O31  OSL   -0.490000       15.9994           0
   14705 O1   14   DMPC C31  CL     0.900000       12.0107           0
   14706 O1   14   DMPC O32  OBL   -0.630000       15.9994           0
   14707 O1   14   DMPC C32  CTL2  -0.220000       12.0107           0
   14708 O1   14   DMPC H2X  HAL2   0.090000        1.0079           0
   14709 O1   14   DMPC H2Y  HAL2   0.090000        1.0079           0
   14710 O1   14   DMPC C23  CTL2  -0.180000       12.0107           0
   14711 O1   14   DMPC H3R  HAL2   0.090000        1.0079           0
   14712 O1   14   DMPC H3S  HAL2   0.090000        1.0079           0
   14713 O1   14   DMPC C24  CTL2  -0.180000       12.0107           0
   14714 O1   14   DMPC H4R  HAL2   0.090000        1.0079           0
   14715 O1   14   DMPC H4S  HAL2   0.090000        1.0079           0
   14716 O1   14   DMPC C25  CTL2  -0.180000       12.0107           0
   14717 O1   14   DMPC H5R  HAL2   0.090000        1.0079           0
   14718 O1   14   DMPC H5S  HAL2   0.090000        1.0079           0
   14719 O1   14   DMPC C26  CTL2  -0.180000       12.0107           0
   14720 O1   14   DMPC H6R  HAL2   0.090000        1.0079           0
   14721 O1   14   DMPC H6S  HAL2   0.090000        1.0079           0
   14722 O1   14   DMPC C27  CTL2  -0.180000       12.0107           0
   14723 O1   14   DMPC H7R  HAL2   0.090000        1.0079           0
   14724 O1   14   DMPC H7S  HAL2   0.090000        1.0079           0
   14725 O1   14   DMPC C28  CTL2  -0.180000       12.0107           0
   14726 O1   14   DMPC H8R  HAL2   0.090000        1.0079           0
   14727 O1   14   DMPC H8S  HAL2   0.090000        1.0079           0
   14728 O1   14   DMPC C29  CTL2  -0.180000       12.0107           0
   14729 O1   14   DMPC H9R  HAL2   0.090000        1.0079           0
   14730 O1   14   DMPC H9S  HAL2   0.090000        1.0079           0
   14731 O1   14   DMPC C210 CTL2  -0.180000       12.0107           0
   14732 O1   14   DMPC H10R HAL2   0.090000        1.0079           0
   14733 O1   14   DMPC H10S HAL2   0.090000        1.0079           0
   14734 O1   14   DMPC C211 CTL2  -0.180000       12.0107           0
   14735 O1   14   DMPC H11R HAL2   0.090000        1.0079           0
   14736 O1   14   DMPC H11S HAL2   0.090000        1.0079           0
   14737 O1   14   DMPC C212 CTL2  -0.180000       12.0107           0
   14738 O1   14   DMPC H12R HAL2   0.090000        1.0079           0
   14739 O1   14   DMPC H12S HAL2   0.090000        1.0079           0
   14740 O1   14   DMPC C213 CTL2  -0.180000       12.0107           0
   14741 O1   14   DMPC H13R HAL2   0.090000        1.0079           0
   14742 O1   14   DMPC H13S HAL2   0.090000        1.0079           0
   14743 O1   14   DMPC C214 CTL3  -0.270000       12.0107           0
   14744 O1   14   DMPC H14R HAL3   0.090000        1.0079           0
   14745 O1   14   DMPC H14S HAL3   0.090000        1.0079           0
   14746 O1   14   DMPC H14T HAL3   0.090000        1.0079           0
   14747 O1   14   DMPC C33  CTL2  -0.180000       12.0107           0
   14748 O1   14   DMPC H3X  HAL2   0.090000        1.0079           0
   14749 O1   14   DMPC H3Y  HAL2   0.090000        1.0079           0
   14750 O1   14   DMPC C34  CTL2  -0.180000       12.0107           0
   14751 O1   14   DMPC H4X  HAL2   0.090000        1.0079           0
   14752 O1   14   DMPC H4Y  HAL2   0.090000        1.0079           0
   14753 O1   14   DMPC C35  CTL2  -0.180000       12.0107           0
   14754 O1   14   DMPC H5X  HAL2   0.090000        1.0079           0
   14755 O1   14   DMPC H5Y  HAL2   0.090000        1.0079           0
   14756 O1   14   DMPC C36  CTL2  -0.180000       12.0107           0
   14757 O1   14   DMPC H6X  HAL2   0.090000        1.0079           0
   14758 O1   14   DMPC H6Y  HAL2   0.090000        1.0079           0
   14759 O1   14   DMPC C37  CTL2  -0.180000       12.0107           0
   14760 O1   14   DMPC H7X  HAL2   0.090000        1.0079           0
   14761 O1   14   DMPC H7Y  HAL2   0.090000        1.0079           0
   14762 O1   14   DMPC C38  CTL2  -0.180000       12.0107           0
   14763 O1   14   DMPC H8X  HAL2   0.090000        1.0079           0
   14764 O1   14   DMPC H8Y  HAL2   0.090000        1.0079           0
   14765 O1   14   DMPC C39  CTL2  -0.180000       12.0107           0
   14766 O1   14   DMPC H9X  HAL2   0.090000        1.0079           0
   14767 O1   14   DMPC H9Y  HAL2   0.090000        1.0079           0
   14768 O1   14   DMPC C310 CTL2  -0.180000       12.0107           0
   14769 O1   14   DMPC H10X HAL2   0.090000        1.0079           0
   14770 O1   14   DMPC H10Y HAL2   0.090000        1.0079           0
   14771 O1   14   DMPC C311 CTL2  -0.180000       12.0107           0
   14772 O1   14   DMPC H11X HAL2   0.090000        1.0079           0
   14773 O1   14   DMPC H11Y HAL2   0.090000        1.0079           0
   14774 O1   14   DMPC C312 CTL2  -0.180000       12.0107           0
   14775 O1   14   DMPC H12X HAL2   0.090000        1.0079           0
   14776 O1   14   DMPC H12Y HAL2   0.090000        1.0079           0
   14777 O1   14   DMPC C313 CTL2  -0.180000       12.0107           0
   14778 O1   14   DMPC H13X HAL2   0.090000        1.0079           0
   14779 O1   14   DMPC H13Y HAL2   0.090000        1.0079           0
   14780 O1   14   DMPC C314 CTL3  -0.270000       12.0107           0
   14781 O1   14   DMPC H14X HAL3   0.090000        1.0079           0
   14782 O1   14   DMPC H14Y HAL3   0.090000        1.0079           0
   14783 O1   14   DMPC H14Z HAL3   0.090000        1.0079           0
   14784 O1   15   DMPC N    NTL   -0.600000       14.0067           0
   14785 O1   15   DMPC C13  CTL5  -0.350000       12.0107           0
   14786 O1   15   DMPC H13A HL     0.250000        1.0079           0
   14787 O1   15   DMPC H13B HL     0.250000        1.0079           0
   14788 O1   15   DMPC H13C HL     0.250000        1.0079           0
   14789 O1   15   DMPC C14  CTL5  -0.350000       12.0107           0
   14790 O1   15   DMPC H14A HL     0.250000        1.0079           0
   14791 O1   15   DMPC H14B HL     0.250000        1.0079           0
   14792 O1   15   DMPC H14C HL     0.250000        1.0079           0
   14793 O1   15   DMPC C15  CTL5  -0.350000       12.0107           0
   14794 O1   15   DMPC H15A HL     0.250000        1.0079           0
   14795 O1   15   DMPC H15B HL     0.250000        1.0079           0
   14796 O1   15   DMPC H15C HL     0.250000        1.0079           0
   14797 O1   15   DMPC C12  CTL2  -0.100000       12.0107           0
   14798 O1   15   DMPC H12A HL     0.250000        1.0079           0
   14799 O1   15   DMPC H12B HL     0.250000        1.0079           0
   14800 O1   15   DMPC C11  CTL2  -0.080000       12.0107           0
   14801 O1   15   DMPC H11A HAL2   0.090000        1.0079           0
   14802 O1   15   DMPC H11B HAL2   0.090000        1.0079           0
   14803 O1   15   DMPC P    PL     1.500000       30.9738           0
   14804 O1   15   DMPC O13  O2L   -0.780000       15.9994           0
   14805 O1   15   DMPC O14  O2L   -0.780000       15.9994           0
   14806 O1   15   DMPC O11  OSLP  -0.570000       15.9994           0
   14807 O1   15   DMPC O12  OSLP  -0.570000       15.9994           0
   14808 O1   15   DMPC C1   CTL2  -0.080000       12.0107           0
   14809 O1   15   DMPC HA   HAL2   0.090000        1.0079           0
   14810 O1   15   DMPC HB   HAL2   0.090000        1.0079           0
   14811 O1   15   DMPC C2   CTL1   0.170000       12.0107           0
   14812 O1   15   DMPC HS   HAL1   0.090000        1.0079           0
   14813 O1   15   DMPC O21  OSL   -0.490000       15.9994           0
   14814 O1   15   DMPC C21  CL     0.900000       12.0107           0
   14815 O1   15   DMPC O22  OBL   -0.630000       15.9994           0
   14816 O1   15   DMPC C22  CTL2  -0.220000       12.0107           0
   14817 O1   15   DMPC H2R  HAL2   0.090000        1.0079           0
   14818 O1   15   DMPC H2S  HAL2   0.090000        1.0079           0
   14819 O1   15   DMPC C3   CTL2   0.080000       12.0107           0
   14820 O1   15   DMPC HX   HAL2   0.090000        1.0079           0
   14821 O1   15   DMPC HY   HAL2   0.090000        1.0079           0
   14822 O1   15   DMPC O31  OSL   -0.490000       15.9994           0
   14823 O1   15   DMPC C31  CL     0.900000       12.0107           0
   14824 O1   15   DMPC O32  OBL   -0.630000       15.9994           0
   14825 O1   15   DMPC C32  CTL2  -0.220000       12.0107           0
   14826 O1   15   DMPC H2X  HAL2   0.090000        1.0079           0
   14827 O1   15   DMPC H2Y  HAL2   0.090000        1.0079           0
   14828 O1   15   DMPC C23  CTL2  -0.180000       12.0107           0
   14829 O1   15   DMPC H3R  HAL2   0.090000        1.0079           0
   14830 O1   15   DMPC H3S  HAL2   0.090000        1.0079           0
   14831 O1   15   DMPC C24  CTL2  -0.180000       12.0107           0
   14832 O1   15   DMPC H4R  HAL2   0.090000        1.0079           0
   14833 O1   15   DMPC H4S  HAL2   0.090000        1.0079           0
   14834 O1   15   DMPC C25  CTL2  -0.180000       12.0107           0
   14835 O1   15   DMPC H5R  HAL2   0.090000        1.0079           0
   14836 O1   15   DMPC H5S  HAL2   0.090000        1.0079           0
   14837 O1   15   DMPC C26  CTL2  -0.180000       12.0107           0
   14838 O1   15   DMPC H6R  HAL2   0.090000        1.0079           0
   14839 O1   15   DMPC H6S  HAL2   0.090000        1.0079           0
   14840 O1   15   DMPC C27  CTL2  -0.180000       12.0107           0
   14841 O1   15   DMPC H7R  HAL2   0.090000        1.0079           0
   14842 O1   15   DMPC H7S  HAL2   0.090000        1.0079           0
   14843 O1   15   DMPC C28  CTL2  -0.180000       12.0107           0
   14844 O1   15   DMPC H8R  HAL2   0.090000        1.0079           0
   14845 O1   15   DMPC H8S  HAL2   0.090000        1.0079           0
   14846 O1   15   DMPC C29  CTL2  -0.180000       12.0107           0
   14847 O1   15   DMPC H9R  HAL2   0.090000        1.0079           0
   14848 O1   15   DMPC H9S  HAL2   0.090000        1.0079           0
   14849 O1   15   DMPC C210 CTL2  -0.180000       12.0107           0
   14850 O1   15   DMPC H10R HAL2   0.090000        1.0079           0
   14851 O1   15   DMPC H10S HAL2   0.090000        1.0079           0
   14852 O1   15   DMPC C211 CTL2  -0.180000       12.0107           0
   14853 O1   15   DMPC H11R HAL2   0.090000        1.0079           0
   14854 O1   15   DMPC H11S HAL2   0.090000        1.0079           0
   14855 O1   15   DMPC C212 CTL2  -0.180000       12.0107           0
   14856 O1   15   DMPC H12R HAL2   0.090000        1.0079           0
   14857 O1   15   DMPC H12S HAL2   0.090000        1.0079           0
   14858 O1   15   DMPC C213 CTL2  -0.180000       12.0107           0
   14859 O1   15   DMPC H13R HAL2   0.090000        1.0079           0
   14860 O1   15   DMPC H13S HAL2   0.090000        1.0079           0
   14861 O1   15   DMPC C214 CTL3  -0.270000       12.0107           0
   14862 O1   15   DMPC H14R HAL3   0.090000        1.0079           0
   14863 O1   15   DMPC H14S HAL3   0.090000        1.0079           0
   14864 O1   15   DMPC H14T HAL3   0.090000        1.0079           0
   14865 O1   15   DMPC C33  CTL2  -0.180000       12.0107           0
   14866 O1   15   DMPC H3X  HAL2   0.090000        1.0079           0
   14867 O1   15   DMPC H3Y  HAL2   0.090000        1.0079           0
   14868 O1   15   DMPC C34  CTL2  -0.180000       12.0107           0
   14869 O1   15   DMPC H4X  HAL2   0.090000        1.0079           0
   14870 O1   15   DMPC H4Y  HAL2   0.090000        1.0079           0
   14871 O1   15   DMPC C35  CTL2  -0.180000       12.0107           0
   14872 O1   15   DMPC H5X  HAL2   0.090000        1.0079           0
   14873 O1   15   DMPC H5Y  HAL2   0.090000        1.0079           0
   14874 O1   15   DMPC C36  CTL2  -0.180000       12.0107           0
   14875 O1   15   DMPC H6X  HAL2   0.090000        1.0079           0
   14876 O1   15   DMPC H6Y  HAL2   0.090000        1.0079           0
   14877 O1   15   DMPC C37  CTL2  -0.180000       12.0107           0
   14878 O1   15   DMPC H7X  HAL2   0.090000        1.0079           0
   14879 O1   15   DMPC H7Y  HAL2   0.090000        1.0079           0
   14880 O1   15   DMPC C38  CTL2  -0.180000       12.0107           0
   14881 O1   15   DMPC H8X  HAL2   0.090000        1.0079           0
   14882 O1   15   DMPC H8Y  HAL2   0.090000        1.0079           0
   14883 O1   15   DMPC C39  CTL2  -0.180000       12.0107           0
   14884 O1   15   DMPC H9X  HAL2   0.090000        1.0079           0
   14885 O1   15   DMPC H9Y  HAL2   0.090000        1.0079           0
   14886 O1   15   DMPC C310 CTL2  -0.180000       12.0107           0
   14887 O1   15   DMPC H10X HAL2   0.090000        1.0079           0
   14888 O1   15   DMPC H10Y HAL2   0.090000        1.0079           0
   14889 O1   15   DMPC C311 CTL2  -0.180000       12.0107           0
   14890 O1   15   DMPC H11X HAL2   0.090000        1.0079           0
   14891 O1   15   DMPC H11Y HAL2   0.090000        1.0079           0
   14892 O1   15   DMPC C312 CTL2  -0.180000       12.0107           0
   14893 O1   15   DMPC H12X HAL2   0.090000        1.0079           0
   14894 O1   15   DMPC H12Y HAL2   0.090000        1.0079           0
   14895 O1   15   DMPC C313 CTL2  -0.180000       12.0107           0
   14896 O1   15   DMPC H13X HAL2   0.090000        1.0079           0
   14897 O1   15   DMPC H13Y HAL2   0.090000        1.0079           0
   14898 O1   15   DMPC C314 CTL3  -0.270000       12.0107           0
   14899 O1   15   DMPC H14X HAL3   0.090000        1.0079           0
   14900 O1   15   DMPC H14Y HAL3   0.090000        1.0079           0
   14901 O1   15   DMPC H14Z HAL3   0.090000        1.0079           0
   14902 O1   16   DMPC N    NTL   -0.600000       14.0067           0
   14903 O1   16   DMPC C13  CTL5  -0.350000       12.0107           0
   14904 O1   16   DMPC H13A HL     0.250000        1.0079           0
   14905 O1   16   DMPC H13B HL     0.250000        1.0079           0
   14906 O1   16   DMPC H13C HL     0.250000        1.0079           0
   14907 O1   16   DMPC C14  CTL5  -0.350000       12.0107           0
   14908 O1   16   DMPC H14A HL     0.250000        1.0079           0
   14909 O1   16   DMPC H14B HL     0.250000        1.0079           0
   14910 O1   16   DMPC H14C HL     0.250000        1.0079           0
   14911 O1   16   DMPC C15  CTL5  -0.350000       12.0107           0
   14912 O1   16   DMPC H15A HL     0.250000        1.0079           0
   14913 O1   16   DMPC H15B HL     0.250000        1.0079           0
   14914 O1   16   DMPC H15C HL     0.250000        1.0079           0
   14915 O1   16   DMPC C12  CTL2  -0.100000       12.0107           0
   14916 O1   16   DMPC H12A HL     0.250000        1.0079           0
   14917 O1   16   DMPC H12B HL     0.250000        1.0079           0
   14918 O1   16   DMPC C11  CTL2  -0.080000       12.0107           0
   14919 O1   16   DMPC H11A HAL2   0.090000        1.0079           0
   14920 O1   16   DMPC H11B HAL2   0.090000        1.0079           0
   14921 O1   16   DMPC P    PL     1.500000       30.9738           0
   14922 O1   16   DMPC O13  O2L   -0.780000       15.9994           0
   14923 O1   16   DMPC O14  O2L   -0.780000       15.9994           0
   14924 O1   16   DMPC O11  OSLP  -0.570000       15.9994           0
   14925 O1   16   DMPC O12  OSLP  -0.570000       15.9994           0
   14926 O1   16   DMPC C1   CTL2  -0.080000       12.0107           0
   14927 O1   16   DMPC HA   HAL2   0.090000        1.0079           0
   14928 O1   16   DMPC HB   HAL2   0.090000        1.0079           0
   14929 O1   16   DMPC C2   CTL1   0.170000       12.0107           0
   14930 O1   16   DMPC HS   HAL1   0.090000        1.0079           0
   14931 O1   16   DMPC O21  OSL   -0.490000       15.9994           0
   14932 O1   16   DMPC C21  CL     0.900000       12.0107           0
   14933 O1   16   DMPC O22  OBL   -0.630000       15.9994           0
   14934 O1   16   DMPC C22  CTL2  -0.220000       12.0107           0
   14935 O1   16   DMPC H2R  HAL2   0.090000        1.0079           0
   14936 O1   16   DMPC H2S  HAL2   0.090000        1.0079           0
   14937 O1   16   DMPC C3   CTL2   0.080000       12.0107           0
   14938 O1   16   DMPC HX   HAL2   0.090000        1.0079           0
   14939 O1   16   DMPC HY   HAL2   0.090000        1.0079           0
   14940 O1   16   DMPC O31  OSL   -0.490000       15.9994           0
   14941 O1   16   DMPC C31  CL     0.900000       12.0107           0
   14942 O1   16   DMPC O32  OBL   -0.630000       15.9994           0
   14943 O1   16   DMPC C32  CTL2  -0.220000       12.0107           0
   14944 O1   16   DMPC H2X  HAL2   0.090000        1.0079           0
   14945 O1   16   DMPC H2Y  HAL2   0.090000        1.0079           0
   14946 O1   16   DMPC C23  CTL2  -0.180000       12.0107           0
   14947 O1   16   DMPC H3R  HAL2   0.090000        1.0079           0
   14948 O1   16   DMPC H3S  HAL2   0.090000        1.0079           0
   14949 O1   16   DMPC C24  CTL2  -0.180000       12.0107           0
   14950 O1   16   DMPC H4R  HAL2   0.090000        1.0079           0
   14951 O1   16   DMPC H4S  HAL2   0.090000        1.0079           0
   14952 O1   16   DMPC C25  CTL2  -0.180000       12.0107           0
   14953 O1   16   DMPC H5R  HAL2   0.090000        1.0079           0
   14954 O1   16   DMPC H5S  HAL2   0.090000        1.0079           0
   14955 O1   16   DMPC C26  CTL2  -0.180000       12.0107           0
   14956 O1   16   DMPC H6R  HAL2   0.090000        1.0079           0
   14957 O1   16   DMPC H6S  HAL2   0.090000        1.0079           0
   14958 O1   16   DMPC C27  CTL2  -0.180000       12.0107           0
   14959 O1   16   DMPC H7R  HAL2   0.090000        1.0079           0
   14960 O1   16   DMPC H7S  HAL2   0.090000        1.0079           0
   14961 O1   16   DMPC C28  CTL2  -0.180000       12.0107           0
   14962 O1   16   DMPC H8R  HAL2   0.090000        1.0079           0
   14963 O1   16   DMPC H8S  HAL2   0.090000        1.0079           0
   14964 O1   16   DMPC C29  CTL2  -0.180000       12.0107           0
   14965 O1   16   DMPC H9R  HAL2   0.090000        1.0079           0
   14966 O1   16   DMPC H9S  HAL2   0.090000        1.0079           0
   14967 O1   16   DMPC C210 CTL2  -0.180000       12.0107           0
   14968 O1   16   DMPC H10R HAL2   0.090000        1.0079           0
   14969 O1   16   DMPC H10S HAL2   0.090000        1.0079           0
   14970 O1   16   DMPC C211 CTL2  -0.180000       12.0107           0
   14971 O1   16   DMPC H11R HAL2   0.090000        1.0079           0
   14972 O1   16   DMPC H11S HAL2   0.090000        1.0079           0
   14973 O1   16   DMPC C212 CTL2  -0.180000       12.0107           0
   14974 O1   16   DMPC H12R HAL2   0.090000        1.0079           0
   14975 O1   16   DMPC H12S HAL2   0.090000        1.0079           0
   14976 O1   16   DMPC C213 CTL2  -0.180000       12.0107           0
   14977 O1   16   DMPC H13R HAL2   0.090000        1.0079           0
   14978 O1   16   DMPC H13S HAL2   0.090000        1.0079           0
   14979 O1   16   DMPC C214 CTL3  -0.270000       12.0107           0
   14980 O1   16   DMPC H14R HAL3   0.090000        1.0079           0
   14981 O1   16   DMPC H14S HAL3   0.090000        1.0079           0
   14982 O1   16   DMPC H14T HAL3   0.090000        1.0079           0
   14983 O1   16   DMPC C33  CTL2  -0.180000       12.0107           0
   14984 O1   16   DMPC H3X  HAL2   0.090000        1.0079           0
   14985 O1   16   DMPC H3Y  HAL2   0.090000        1.0079           0
   14986 O1   16   DMPC C34  CTL2  -0.180000       12.0107           0
   14987 O1   16   DMPC H4X  HAL2   0.090000        1.0079           0
   14988 O1   16   DMPC H4Y  HAL2   0.090000        1.0079           0
   14989 O1   16   DMPC C35  CTL2  -0.180000       12.0107           0
   14990 O1   16   DMPC H5X  HAL2   0.090000        1.0079           0
   14991 O1   16   DMPC H5Y  HAL2   0.090000        1.0079           0
   14992 O1   16   DMPC C36  CTL2  -0.180000       12.0107           0
   14993 O1   16   DMPC H6X  HAL2   0.090000        1.0079           0
   14994 O1   16   DMPC H6Y  HAL2   0.090000        1.0079           0
   14995 O1   16   DMPC C37  CTL2  -0.180000       12.0107           0
   14996 O1   16   DMPC H7X  HAL2   0.090000        1.0079           0
   14997 O1   16   DMPC H7Y  HAL2   0.090000        1.0079           0
   14998 O1   16   DMPC C38  CTL2  -0.180000       12.0107           0
   14999 O1   16   DMPC H8X  HAL2   0.090000        1.0079           0
   15000 O1   16   DMPC H8Y  HAL2   0.090000        1.0079           0
   15001 O1   16   DMPC C39  CTL2  -0.180000       12.0107           0
   15002 O1   16   DMPC H9X  HAL2   0.090000        1.0079           0
   15003 O1   16   DMPC H9Y  HAL2   0.090000        1.0079           0
   15004 O1   16   DMPC C310 CTL2  -0.180000       12.0107           0
   15005 O1   16   DMPC H10X HAL2   0.090000        1.0079           0
   15006 O1   16   DMPC H10Y HAL2   0.090000        1.0079           0
   15007 O1   16   DMPC C311 CTL2  -0.180000       12.0107           0
   15008 O1   16   DMPC H11X HAL2   0.090000        1.0079           0
   15009 O1   16   DMPC H11Y HAL2   0.090000        1.0079           0
   15010 O1   16   DMPC C312 CTL2  -0.180000       12.0107           0
   15011 O1   16   DMPC H12X HAL2   0.090000        1.0079           0
   15012 O1   16   DMPC H12Y HAL2   0.090000        1.0079           0
   15013 O1   16   DMPC C313 CTL2  -0.180000       12.0107           0
   15014 O1   16   DMPC H13X HAL2   0.090000        1.0079           0
   15015 O1   16   DMPC H13Y HAL2   0.090000        1.0079           0
   15016 O1   16   DMPC C314 CTL3  -0.270000       12.0107           0
   15017 O1   16   DMPC H14X HAL3   0.090000        1.0079           0
   15018 O1   16   DMPC H14Y HAL3   0.090000        1.0079           0
   15019 O1   16   DMPC H14Z HAL3   0.090000        1.0079           0
   15020 O1   17   DMPC N    NTL   -0.600000       14.0067           0
   15021 O1   17   DMPC C13  CTL5  -0.350000       12.0107           0
   15022 O1   17   DMPC H13A HL     0.250000        1.0079           0
   15023 O1   17   DMPC H13B HL     0.250000        1.0079           0
   15024 O1   17   DMPC H13C HL     0.250000        1.0079           0
   15025 O1   17   DMPC C14  CTL5  -0.350000       12.0107           0
   15026 O1   17   DMPC H14A HL     0.250000        1.0079           0
   15027 O1   17   DMPC H14B HL     0.250000        1.0079           0
   15028 O1   17   DMPC H14C HL     0.250000        1.0079           0
   15029 O1   17   DMPC C15  CTL5  -0.350000       12.0107           0
   15030 O1   17   DMPC H15A HL     0.250000        1.0079           0
   15031 O1   17   DMPC H15B HL     0.250000        1.0079           0
   15032 O1   17   DMPC H15C HL     0.250000        1.0079           0
   15033 O1   17   DMPC C12  CTL2  -0.100000       12.0107           0
   15034 O1   17   DMPC H12A HL     0.250000        1.0079           0
   15035 O1   17   DMPC H12B HL     0.250000        1.0079           0
   15036 O1   17   DMPC C11  CTL2  -0.080000       12.0107           0
   15037 O1   17   DMPC H11A HAL2   0.090000        1.0079           0
   15038 O1   17   DMPC H11B HAL2   0.090000        1.0079           0
   15039 O1   17   DMPC P    PL     1.500000       30.9738           0
   15040 O1   17   DMPC O13  O2L   -0.780000       15.9994           0
   15041 O1   17   DMPC O14  O2L   -0.780000       15.9994           0
   15042 O1   17   DMPC O11  OSLP  -0.570000       15.9994           0
   15043 O1   17   DMPC O12  OSLP  -0.570000       15.9994           0
   15044 O1   17   DMPC C1   CTL2  -0.080000       12.0107           0
   15045 O1   17   DMPC HA   HAL2   0.090000        1.0079           0
   15046 O1   17   DMPC HB   HAL2   0.090000        1.0079           0
   15047 O1   17   DMPC C2   CTL1   0.170000       12.0107           0
   15048 O1   17   DMPC HS   HAL1   0.090000        1.0079           0
   15049 O1   17   DMPC O21  OSL   -0.490000       15.9994           0
   15050 O1   17   DMPC C21  CL     0.900000       12.0107           0
   15051 O1   17   DMPC O22  OBL   -0.630000       15.9994           0
   15052 O1   17   DMPC C22  CTL2  -0.220000       12.0107           0
   15053 O1   17   DMPC H2R  HAL2   0.090000        1.0079           0
   15054 O1   17   DMPC H2S  HAL2   0.090000        1.0079           0
   15055 O1   17   DMPC C3   CTL2   0.080000       12.0107           0
   15056 O1   17   DMPC HX   HAL2   0.090000        1.0079           0
   15057 O1   17   DMPC HY   HAL2   0.090000        1.0079           0
   15058 O1   17   DMPC O31  OSL   -0.490000       15.9994           0
   15059 O1   17   DMPC C31  CL     0.900000       12.0107           0
   15060 O1   17   DMPC O32  OBL   -0.630000       15.9994           0
   15061 O1   17   DMPC C32  CTL2  -0.220000       12.0107           0
   15062 O1   17   DMPC H2X  HAL2   0.090000        1.0079           0
   15063 O1   17   DMPC H2Y  HAL2   0.090000        1.0079           0
   15064 O1   17   DMPC C23  CTL2  -0.180000       12.0107           0
   15065 O1   17   DMPC H3R  HAL2   0.090000        1.0079           0
   15066 O1   17   DMPC H3S  HAL2   0.090000        1.0079           0
   15067 O1   17   DMPC C24  CTL2  -0.180000       12.0107           0
   15068 O1   17   DMPC H4R  HAL2   0.090000        1.0079           0
   15069 O1   17   DMPC H4S  HAL2   0.090000        1.0079           0
   15070 O1   17   DMPC C25  CTL2  -0.180000       12.0107           0
   15071 O1   17   DMPC H5R  HAL2   0.090000        1.0079           0
   15072 O1   17   DMPC H5S  HAL2   0.090000        1.0079           0
   15073 O1   17   DMPC C26  CTL2  -0.180000       12.0107           0
   15074 O1   17   DMPC H6R  HAL2   0.090000        1.0079           0
   15075 O1   17   DMPC H6S  HAL2   0.090000        1.0079           0
   15076 O1   17   DMPC C27  CTL2  -0.180000       12.0107           0
   15077 O1   17   DMPC H7R  HAL2   0.090000        1.0079           0
   15078 O1   17   DMPC H7S  HAL2   0.090000        1.0079           0
   15079 O1   17   DMPC C28  CTL2  -0.180000       12.0107           0
   15080 O1   17   DMPC H8R  HAL2   0.090000        1.0079           0
   15081 O1   17   DMPC H8S  HAL2   0.090000        1.0079           0
   15082 O1   17   DMPC C29  CTL2  -0.180000       12.0107           0
   15083 O1   17   DMPC H9R  HAL2   0.090000        1.0079           0
   15084 O1   17   DMPC H9S  HAL2   0.090000        1.0079           0
   15085 O1   17   DMPC C210 CTL2  -0.180000       12.0107           0
   15086 O1   17   DMPC H10R HAL2   0.090000        1.0079           0
   15087 O1   17   DMPC H10S HAL2   0.090000        1.0079           0
   15088 O1   17   DMPC C211 CTL2  -0.180000       12.0107           0
   15089 O1   17   DMPC H11R HAL2   0.090000        1.0079           0
   15090 O1   17   DMPC H11S HAL2   0.090000        1.0079           0
   15091 O1   17   DMPC C212 CTL2  -0.180000       12.0107           0
   15092 O1   17   DMPC H12R HAL2   0.090000        1.0079           0
   15093 O1   17   DMPC H12S HAL2   0.090000        1.0079           0
   15094 O1   17   DMPC C213 CTL2  -0.180000       12.0107           0
   15095 O1   17   DMPC H13R HAL2   0.090000        1.0079           0
   15096 O1   17   DMPC H13S HAL2   0.090000        1.0079           0
   15097 O1   17   DMPC C214 CTL3  -0.270000       12.0107           0
   15098 O1   17   DMPC H14R HAL3   0.090000        1.0079           0
   15099 O1   17   DMPC H14S HAL3   0.090000        1.0079           0
   15100 O1   17   DMPC H14T HAL3   0.090000        1.0079           0
   15101 O1   17   DMPC C33  CTL2  -0.180000       12.0107           0
   15102 O1   17   DMPC H3X  HAL2   0.090000        1.0079           0
   15103 O1   17   DMPC H3Y  HAL2   0.090000        1.0079           0
   15104 O1   17   DMPC C34  CTL2  -0.180000       12.0107           0
   15105 O1   17   DMPC H4X  HAL2   0.090000        1.0079           0
   15106 O1   17   DMPC H4Y  HAL2   0.090000        1.0079           0
   15107 O1   17   DMPC C35  CTL2  -0.180000       12.0107           0
   15108 O1   17   DMPC H5X  HAL2   0.090000        1.0079           0
   15109 O1   17   DMPC H5Y  HAL2   0.090000        1.0079           0
   15110 O1   17   DMPC C36  CTL2  -0.180000       12.0107           0
   15111 O1   17   DMPC H6X  HAL2   0.090000        1.0079           0
   15112 O1   17   DMPC H6Y  HAL2   0.090000        1.0079           0
   15113 O1   17   DMPC C37  CTL2  -0.180000       12.0107           0
   15114 O1   17   DMPC H7X  HAL2   0.090000        1.0079           0
   15115 O1   17   DMPC H7Y  HAL2   0.090000        1.0079           0
   15116 O1   17   DMPC C38  CTL2  -0.180000       12.0107           0
   15117 O1   17   DMPC H8X  HAL2   0.090000        1.0079           0
   15118 O1   17   DMPC H8Y  HAL2   0.090000        1.0079           0
   15119 O1   17   DMPC C39  CTL2  -0.180000       12.0107           0
   15120 O1   17   DMPC H9X  HAL2   0.090000        1.0079           0
   15121 O1   17   DMPC H9Y  HAL2   0.090000        1.0079           0
   15122 O1   17   DMPC C310 CTL2  -0.180000       12.0107           0
   15123 O1   17   DMPC H10X HAL2   0.090000        1.0079           0
   15124 O1   17   DMPC H10Y HAL2   0.090000        1.0079           0
   15125 O1   17   DMPC C311 CTL2  -0.180000       12.0107           0
   15126 O1   17   DMPC H11X HAL2   0.090000        1.0079           0
   15127 O1   17   DMPC H11Y HAL2   0.090000        1.0079           0
   15128 O1   17   DMPC C312 CTL2  -0.180000       12.0107           0
   15129 O1   17   DMPC H12X HAL2   0.090000        1.0079           0
   15130 O1   17   DMPC H12Y HAL2   0.090000        1.0079           0
   15131 O1   17   DMPC C313 CTL2  -0.180000       12.0107           0
   15132 O1   17   DMPC H13X HAL2   0.090000        1.0079           0
   15133 O1   17   DMPC H13Y HAL2   0.090000        1.0079           0
   15134 O1   17   DMPC C314 CTL3  -0.270000       12.0107           0
   15135 O1   17   DMPC H14X HAL3   0.090000        1.0079           0
   15136 O1   17   DMPC H14Y HAL3   0.090000        1.0079           0
   15137 O1   17   DMPC H14Z HAL3   0.090000        1.0079           0
   15138 O1   18   DMPC N    NTL   -0.600000       14.0067           0
   15139 O1   18   DMPC C13  CTL5  -0.350000       12.0107           0
   15140 O1   18   DMPC H13A HL     0.250000        1.0079           0
   15141 O1   18   DMPC H13B HL     0.250000        1.0079           0
   15142 O1   18   DMPC H13C HL     0.250000        1.0079           0
   15143 O1   18   DMPC C14  CTL5  -0.350000       12.0107           0
   15144 O1   18   DMPC H14A HL     0.250000        1.0079           0
   15145 O1   18   DMPC H14B HL     0.250000        1.0079           0
   15146 O1   18   DMPC H14C HL     0.250000        1.0079           0
   15147 O1   18   DMPC C15  CTL5  -0.350000       12.0107           0
   15148 O1   18   DMPC H15A HL     0.250000        1.0079           0
   15149 O1   18   DMPC H15B HL     0.250000        1.0079           0
   15150 O1   18   DMPC H15C HL     0.250000        1.0079           0
   15151 O1   18   DMPC C12  CTL2  -0.100000       12.0107           0
   15152 O1   18   DMPC H12A HL     0.250000        1.0079           0
   15153 O1   18   DMPC H12B HL     0.250000        1.0079           0
   15154 O1   18   DMPC C11  CTL2  -0.080000       12.0107           0
   15155 O1   18   DMPC H11A HAL2   0.090000        1.0079           0
   15156 O1   18   DMPC H11B HAL2   0.090000        1.0079           0
   15157 O1   18   DMPC P    PL     1.500000       30.9738           0
   15158 O1   18   DMPC O13  O2L   -0.780000       15.9994           0
   15159 O1   18   DMPC O14  O2L   -0.780000       15.9994           0
   15160 O1   18   DMPC O11  OSLP  -0.570000       15.9994           0
   15161 O1   18   DMPC O12  OSLP  -0.570000       15.9994           0
   15162 O1   18   DMPC C1   CTL2  -0.080000       12.0107           0
   15163 O1   18   DMPC HA   HAL2   0.090000        1.0079           0
   15164 O1   18   DMPC HB   HAL2   0.090000        1.0079           0
   15165 O1   18   DMPC C2   CTL1   0.170000       12.0107           0
   15166 O1   18   DMPC HS   HAL1   0.090000        1.0079           0
   15167 O1   18   DMPC O21  OSL   -0.490000       15.9994           0
   15168 O1   18   DMPC C21  CL     0.900000       12.0107           0
   15169 O1   18   DMPC O22  OBL   -0.630000       15.9994           0
   15170 O1   18   DMPC C22  CTL2  -0.220000       12.0107           0
   15171 O1   18   DMPC H2R  HAL2   0.090000        1.0079           0
   15172 O1   18   DMPC H2S  HAL2   0.090000        1.0079           0
   15173 O1   18   DMPC C3   CTL2   0.080000       12.0107           0
   15174 O1   18   DMPC HX   HAL2   0.090000        1.0079           0
   15175 O1   18   DMPC HY   HAL2   0.090000        1.0079           0
   15176 O1   18   DMPC O31  OSL   -0.490000       15.9994           0
   15177 O1   18   DMPC C31  CL     0.900000       12.0107           0
   15178 O1   18   DMPC O32  OBL   -0.630000       15.9994           0
   15179 O1   18   DMPC C32  CTL2  -0.220000       12.0107           0
   15180 O1   18   DMPC H2X  HAL2   0.090000        1.0079           0
   15181 O1   18   DMPC H2Y  HAL2   0.090000        1.0079           0
   15182 O1   18   DMPC C23  CTL2  -0.180000       12.0107           0
   15183 O1   18   DMPC H3R  HAL2   0.090000        1.0079           0
   15184 O1   18   DMPC H3S  HAL2   0.090000        1.0079           0
   15185 O1   18   DMPC C24  CTL2  -0.180000       12.0107           0
   15186 O1   18   DMPC H4R  HAL2   0.090000        1.0079           0
   15187 O1   18   DMPC H4S  HAL2   0.090000        1.0079           0
   15188 O1   18   DMPC C25  CTL2  -0.180000       12.0107           0
   15189 O1   18   DMPC H5R  HAL2   0.090000        1.0079           0
   15190 O1   18   DMPC H5S  HAL2   0.090000        1.0079           0
   15191 O1   18   DMPC C26  CTL2  -0.180000       12.0107           0
   15192 O1   18   DMPC H6R  HAL2   0.090000        1.0079           0
   15193 O1   18   DMPC H6S  HAL2   0.090000        1.0079           0
   15194 O1   18   DMPC C27  CTL2  -0.180000       12.0107           0
   15195 O1   18   DMPC H7R  HAL2   0.090000        1.0079           0
   15196 O1   18   DMPC H7S  HAL2   0.090000        1.0079           0
   15197 O1   18   DMPC C28  CTL2  -0.180000       12.0107           0
   15198 O1   18   DMPC H8R  HAL2   0.090000        1.0079           0
   15199 O1   18   DMPC H8S  HAL2   0.090000        1.0079           0
   15200 O1   18   DMPC C29  CTL2  -0.180000       12.0107           0
   15201 O1   18   DMPC H9R  HAL2   0.090000        1.0079           0
   15202 O1   18   DMPC H9S  HAL2   0.090000        1.0079           0
   15203 O1   18   DMPC C210 CTL2  -0.180000       12.0107           0
   15204 O1   18   DMPC H10R HAL2   0.090000        1.0079           0
   15205 O1   18   DMPC H10S HAL2   0.090000        1.0079           0
   15206 O1   18   DMPC C211 CTL2  -0.180000       12.0107           0
   15207 O1   18   DMPC H11R HAL2   0.090000        1.0079           0
   15208 O1   18   DMPC H11S HAL2   0.090000        1.0079           0
   15209 O1   18   DMPC C212 CTL2  -0.180000       12.0107           0
   15210 O1   18   DMPC H12R HAL2   0.090000        1.0079           0
   15211 O1   18   DMPC H12S HAL2   0.090000        1.0079           0
   15212 O1   18   DMPC C213 CTL2  -0.180000       12.0107           0
   15213 O1   18   DMPC H13R HAL2   0.090000        1.0079           0
   15214 O1   18   DMPC H13S HAL2   0.090000        1.0079           0
   15215 O1   18   DMPC C214 CTL3  -0.270000       12.0107           0
   15216 O1   18   DMPC H14R HAL3   0.090000        1.0079           0
   15217 O1   18   DMPC H14S HAL3   0.090000        1.0079           0
   15218 O1   18   DMPC H14T HAL3   0.090000        1.0079           0
   15219 O1   18   DMPC C33  CTL2  -0.180000       12.0107           0
   15220 O1   18   DMPC H3X  HAL2   0.090000        1.0079           0
   15221 O1   18   DMPC H3Y  HAL2   0.090000        1.0079           0
   15222 O1   18   DMPC C34  CTL2  -0.180000       12.0107           0
   15223 O1   18   DMPC H4X  HAL2   0.090000        1.0079           0
   15224 O1   18   DMPC H4Y  HAL2   0.090000        1.0079           0
   15225 O1   18   DMPC C35  CTL2  -0.180000       12.0107           0
   15226 O1   18   DMPC H5X  HAL2   0.090000        1.0079           0
   15227 O1   18   DMPC H5Y  HAL2   0.090000        1.0079           0
   15228 O1   18   DMPC C36  CTL2  -0.180000       12.0107           0
   15229 O1   18   DMPC H6X  HAL2   0.090000        1.0079           0
   15230 O1   18   DMPC H6Y  HAL2   0.090000        1.0079           0
   15231 O1   18   DMPC C37  CTL2  -0.180000       12.0107           0
   15232 O1   18   DMPC H7X  HAL2   0.090000        1.0079           0
   15233 O1   18   DMPC H7Y  HAL2   0.090000        1.0079           0
   15234 O1   18   DMPC C38  CTL2  -0.180000       12.0107           0
   15235 O1   18   DMPC H8X  HAL2   0.090000        1.0079           0
   15236 O1   18   DMPC H8Y  HAL2   0.090000        1.0079           0
   15237 O1   18   DMPC C39  CTL2  -0.180000       12.0107           0
   15238 O1   18   DMPC H9X  HAL2   0.090000        1.0079           0
   15239 O1   18   DMPC H9Y  HAL2   0.090000        1.0079           0
   15240 O1   18   DMPC C310 CTL2  -0.180000       12.0107           0
   15241 O1   18   DMPC H10X HAL2   0.090000        1.0079           0
   15242 O1   18   DMPC H10Y HAL2   0.090000        1.0079           0
   15243 O1   18   DMPC C311 CTL2  -0.180000       12.0107           0
   15244 O1   18   DMPC H11X HAL2   0.090000        1.0079           0
   15245 O1   18   DMPC H11Y HAL2   0.090000        1.0079           0
   15246 O1   18   DMPC C312 CTL2  -0.180000       12.0107           0
   15247 O1   18   DMPC H12X HAL2   0.090000        1.0079           0
   15248 O1   18   DMPC H12Y HAL2   0.090000        1.0079           0
   15249 O1   18   DMPC C313 CTL2  -0.180000       12.0107           0
   15250 O1   18   DMPC H13X HAL2   0.090000        1.0079           0
   15251 O1   18   DMPC H13Y HAL2   0.090000        1.0079           0
   15252 O1   18   DMPC C314 CTL3  -0.270000       12.0107           0
   15253 O1   18   DMPC H14X HAL3   0.090000        1.0079           0
   15254 O1   18   DMPC H14Y HAL3   0.090000        1.0079           0
   15255 O1   18   DMPC H14Z HAL3   0.090000        1.0079           0
   15256 O1   19   DMPC N    NTL   -0.600000       14.0067           0
   15257 O1   19   DMPC C13  CTL5  -0.350000       12.0107           0
   15258 O1   19   DMPC H13A HL     0.250000        1.0079           0
   15259 O1   19   DMPC H13B HL     0.250000        1.0079           0
   15260 O1   19   DMPC H13C HL     0.250000        1.0079           0
   15261 O1   19   DMPC C14  CTL5  -0.350000       12.0107           0
   15262 O1   19   DMPC H14A HL     0.250000        1.0079           0
   15263 O1   19   DMPC H14B HL     0.250000        1.0079           0
   15264 O1   19   DMPC H14C HL     0.250000        1.0079           0
   15265 O1   19   DMPC C15  CTL5  -0.350000       12.0107           0
   15266 O1   19   DMPC H15A HL     0.250000        1.0079           0
   15267 O1   19   DMPC H15B HL     0.250000        1.0079           0
   15268 O1   19   DMPC H15C HL     0.250000        1.0079           0
   15269 O1   19   DMPC C12  CTL2  -0.100000       12.0107           0
   15270 O1   19   DMPC H12A HL     0.250000        1.0079           0
   15271 O1   19   DMPC H12B HL     0.250000        1.0079           0
   15272 O1   19   DMPC C11  CTL2  -0.080000       12.0107           0
   15273 O1   19   DMPC H11A HAL2   0.090000        1.0079           0
   15274 O1   19   DMPC H11B HAL2   0.090000        1.0079           0
   15275 O1   19   DMPC P    PL     1.500000       30.9738           0
   15276 O1   19   DMPC O13  O2L   -0.780000       15.9994           0
   15277 O1   19   DMPC O14  O2L   -0.780000       15.9994           0
   15278 O1   19   DMPC O11  OSLP  -0.570000       15.9994           0
   15279 O1   19   DMPC O12  OSLP  -0.570000       15.9994           0
   15280 O1   19   DMPC C1   CTL2  -0.080000       12.0107           0
   15281 O1   19   DMPC HA   HAL2   0.090000        1.0079           0
   15282 O1   19   DMPC HB   HAL2   0.090000        1.0079           0
   15283 O1   19   DMPC C2   CTL1   0.170000       12.0107           0
   15284 O1   19   DMPC HS   HAL1   0.090000        1.0079           0
   15285 O1   19   DMPC O21  OSL   -0.490000       15.9994           0
   15286 O1   19   DMPC C21  CL     0.900000       12.0107           0
   15287 O1   19   DMPC O22  OBL   -0.630000       15.9994           0
   15288 O1   19   DMPC C22  CTL2  -0.220000       12.0107           0
   15289 O1   19   DMPC H2R  HAL2   0.090000        1.0079           0
   15290 O1   19   DMPC H2S  HAL2   0.090000        1.0079           0
   15291 O1   19   DMPC C3   CTL2   0.080000       12.0107           0
   15292 O1   19   DMPC HX   HAL2   0.090000        1.0079           0
   15293 O1   19   DMPC HY   HAL2   0.090000        1.0079           0
   15294 O1   19   DMPC O31  OSL   -0.490000       15.9994           0
   15295 O1   19   DMPC C31  CL     0.900000       12.0107           0
   15296 O1   19   DMPC O32  OBL   -0.630000       15.9994           0
   15297 O1   19   DMPC C32  CTL2  -0.220000       12.0107           0
   15298 O1   19   DMPC H2X  HAL2   0.090000        1.0079           0
   15299 O1   19   DMPC H2Y  HAL2   0.090000        1.0079           0
   15300 O1   19   DMPC C23  CTL2  -0.180000       12.0107           0
   15301 O1   19   DMPC H3R  HAL2   0.090000        1.0079           0
   15302 O1   19   DMPC H3S  HAL2   0.090000        1.0079           0
   15303 O1   19   DMPC C24  CTL2  -0.180000       12.0107           0
   15304 O1   19   DMPC H4R  HAL2   0.090000        1.0079           0
   15305 O1   19   DMPC H4S  HAL2   0.090000        1.0079           0
   15306 O1   19   DMPC C25  CTL2  -0.180000       12.0107           0
   15307 O1   19   DMPC H5R  HAL2   0.090000        1.0079           0
   15308 O1   19   DMPC H5S  HAL2   0.090000        1.0079           0
   15309 O1   19   DMPC C26  CTL2  -0.180000       12.0107           0
   15310 O1   19   DMPC H6R  HAL2   0.090000        1.0079           0
   15311 O1   19   DMPC H6S  HAL2   0.090000        1.0079           0
   15312 O1   19   DMPC C27  CTL2  -0.180000       12.0107           0
   15313 O1   19   DMPC H7R  HAL2   0.090000        1.0079           0
   15314 O1   19   DMPC H7S  HAL2   0.090000        1.0079           0
   15315 O1   19   DMPC C28  CTL2  -0.180000       12.0107           0
   15316 O1   19   DMPC H8R  HAL2   0.090000        1.0079           0
   15317 O1   19   DMPC H8S  HAL2   0.090000        1.0079           0
   15318 O1   19   DMPC C29  CTL2  -0.180000       12.0107           0
   15319 O1   19   DMPC H9R  HAL2   0.090000        1.0079           0
   15320 O1   19   DMPC H9S  HAL2   0.090000        1.0079           0
   15321 O1   19   DMPC C210 CTL2  -0.180000       12.0107           0
   15322 O1   19   DMPC H10R HAL2   0.090000        1.0079           0
   15323 O1   19   DMPC H10S HAL2   0.090000        1.0079           0
   15324 O1   19   DMPC C211 CTL2  -0.180000       12.0107           0
   15325 O1   19   DMPC H11R HAL2   0.090000        1.0079           0
   15326 O1   19   DMPC H11S HAL2   0.090000        1.0079           0
   15327 O1   19   DMPC C212 CTL2  -0.180000       12.0107           0
   15328 O1   19   DMPC H12R HAL2   0.090000        1.0079           0
   15329 O1   19   DMPC H12S HAL2   0.090000        1.0079           0
   15330 O1   19   DMPC C213 CTL2  -0.180000       12.0107           0
   15331 O1   19   DMPC H13R HAL2   0.090000        1.0079           0
   15332 O1   19   DMPC H13S HAL2   0.090000        1.0079           0
   15333 O1   19   DMPC C214 CTL3  -0.270000       12.0107           0
   15334 O1   19   DMPC H14R HAL3   0.090000        1.0079           0
   15335 O1   19   DMPC H14S HAL3   0.090000        1.0079           0
   15336 O1   19   DMPC H14T HAL3   0.090000        1.0079           0
   15337 O1   19   DMPC C33  CTL2  -0.180000       12.0107           0
   15338 O1   19   DMPC H3X  HAL2   0.090000        1.0079           0
   15339 O1   19   DMPC H3Y  HAL2   0.090000        1.0079           0
   15340 O1   19   DMPC C34  CTL2  -0.180000       12.0107           0
   15341 O1   19   DMPC H4X  HAL2   0.090000        1.0079           0
   15342 O1   19   DMPC H4Y  HAL2   0.090000        1.0079           0
   15343 O1   19   DMPC C35  CTL2  -0.180000       12.0107           0
   15344 O1   19   DMPC H5X  HAL2   0.090000        1.0079           0
   15345 O1   19   DMPC H5Y  HAL2   0.090000        1.0079           0
   15346 O1   19   DMPC C36  CTL2  -0.180000       12.0107           0
   15347 O1   19   DMPC H6X  HAL2   0.090000        1.0079           0
   15348 O1   19   DMPC H6Y  HAL2   0.090000        1.0079           0
   15349 O1   19   DMPC C37  CTL2  -0.180000       12.0107           0
   15350 O1   19   DMPC H7X  HAL2   0.090000        1.0079           0
   15351 O1   19   DMPC H7Y  HAL2   0.090000        1.0079           0
   15352 O1   19   DMPC C38  CTL2  -0.180000       12.0107           0
   15353 O1   19   DMPC H8X  HAL2   0.090000        1.0079           0
   15354 O1   19   DMPC H8Y  HAL2   0.090000        1.0079           0
   15355 O1   19   DMPC C39  CTL2  -0.180000       12.0107           0
   15356 O1   19   DMPC H9X  HAL2   0.090000        1.0079           0
   15357 O1   19   DMPC H9Y  HAL2   0.090000        1.0079           0
   15358 O1   19   DMPC C310 CTL2  -0.180000       12.0107           0
   15359 O1   19   DMPC H10X HAL2   0.090000        1.0079           0
   15360 O1   19   DMPC H10Y HAL2   0.090000        1.0079           0
   15361 O1   19   DMPC C311 CTL2  -0.180000       12.0107           0
   15362 O1   19   DMPC H11X HAL2   0.090000        1.0079           0
   15363 O1   19   DMPC H11Y HAL2   0.090000        1.0079           0
   15364 O1   19   DMPC C312 CTL2  -0.180000       12.0107           0
   15365 O1   19   DMPC H12X HAL2   0.090000        1.0079           0
   15366 O1   19   DMPC H12Y HAL2   0.090000        1.0079           0
   15367 O1   19   DMPC C313 CTL2  -0.180000       12.0107           0
   15368 O1   19   DMPC H13X HAL2   0.090000        1.0079           0
   15369 O1   19   DMPC H13Y HAL2   0.090000        1.0079           0
   15370 O1   19   DMPC C314 CTL3  -0.270000       12.0107           0
   15371 O1   19   DMPC H14X HAL3   0.090000        1.0079           0
   15372 O1   19   DMPC H14Y HAL3   0.090000        1.0079           0
   15373 O1   19   DMPC H14Z HAL3   0.090000        1.0079           0
   15374 O1   20   DMPC N    NTL   -0.600000       14.0067           0
   15375 O1   20   DMPC C13  CTL5  -0.350000       12.0107           0
   15376 O1   20   DMPC H13A HL     0.250000        1.0079           0
   15377 O1   20   DMPC H13B HL     0.250000        1.0079           0
   15378 O1   20   DMPC H13C HL     0.250000        1.0079           0
   15379 O1   20   DMPC C14  CTL5  -0.350000       12.0107           0
   15380 O1   20   DMPC H14A HL     0.250000        1.0079           0
   15381 O1   20   DMPC H14B HL     0.250000        1.0079           0
   15382 O1   20   DMPC H14C HL     0.250000        1.0079           0
   15383 O1   20   DMPC C15  CTL5  -0.350000       12.0107           0
   15384 O1   20   DMPC H15A HL     0.250000        1.0079           0
   15385 O1   20   DMPC H15B HL     0.250000        1.0079           0
   15386 O1   20   DMPC H15C HL     0.250000        1.0079           0
   15387 O1   20   DMPC C12  CTL2  -0.100000       12.0107           0
   15388 O1   20   DMPC H12A HL     0.250000        1.0079           0
   15389 O1   20   DMPC H12B HL     0.250000        1.0079           0
   15390 O1   20   DMPC C11  CTL2  -0.080000       12.0107           0
   15391 O1   20   DMPC H11A HAL2   0.090000        1.0079           0
   15392 O1   20   DMPC H11B HAL2   0.090000        1.0079           0
   15393 O1   20   DMPC P    PL     1.500000       30.9738           0
   15394 O1   20   DMPC O13  O2L   -0.780000       15.9994           0
   15395 O1   20   DMPC O14  O2L   -0.780000       15.9994           0
   15396 O1   20   DMPC O11  OSLP  -0.570000       15.9994           0
   15397 O1   20   DMPC O12  OSLP  -0.570000       15.9994           0
   15398 O1   20   DMPC C1   CTL2  -0.080000       12.0107           0
   15399 O1   20   DMPC HA   HAL2   0.090000        1.0079           0
   15400 O1   20   DMPC HB   HAL2   0.090000        1.0079           0
   15401 O1   20   DMPC C2   CTL1   0.170000       12.0107           0
   15402 O1   20   DMPC HS   HAL1   0.090000        1.0079           0
   15403 O1   20   DMPC O21  OSL   -0.490000       15.9994           0
   15404 O1   20   DMPC C21  CL     0.900000       12.0107           0
   15405 O1   20   DMPC O22  OBL   -0.630000       15.9994           0
   15406 O1   20   DMPC C22  CTL2  -0.220000       12.0107           0
   15407 O1   20   DMPC H2R  HAL2   0.090000        1.0079           0
   15408 O1   20   DMPC H2S  HAL2   0.090000        1.0079           0
   15409 O1   20   DMPC C3   CTL2   0.080000       12.0107           0
   15410 O1   20   DMPC HX   HAL2   0.090000        1.0079           0
   15411 O1   20   DMPC HY   HAL2   0.090000        1.0079           0
   15412 O1   20   DMPC O31  OSL   -0.490000       15.9994           0
   15413 O1   20   DMPC C31  CL     0.900000       12.0107           0
   15414 O1   20   DMPC O32  OBL   -0.630000       15.9994           0
   15415 O1   20   DMPC C32  CTL2  -0.220000       12.0107           0
   15416 O1   20   DMPC H2X  HAL2   0.090000        1.0079           0
   15417 O1   20   DMPC H2Y  HAL2   0.090000        1.0079           0
   15418 O1   20   DMPC C23  CTL2  -0.180000       12.0107           0
   15419 O1   20   DMPC H3R  HAL2   0.090000        1.0079           0
   15420 O1   20   DMPC H3S  HAL2   0.090000        1.0079           0
   15421 O1   20   DMPC C24  CTL2  -0.180000       12.0107           0
   15422 O1   20   DMPC H4R  HAL2   0.090000        1.0079           0
   15423 O1   20   DMPC H4S  HAL2   0.090000        1.0079           0
   15424 O1   20   DMPC C25  CTL2  -0.180000       12.0107           0
   15425 O1   20   DMPC H5R  HAL2   0.090000        1.0079           0
   15426 O1   20   DMPC H5S  HAL2   0.090000        1.0079           0
   15427 O1   20   DMPC C26  CTL2  -0.180000       12.0107           0
   15428 O1   20   DMPC H6R  HAL2   0.090000        1.0079           0
   15429 O1   20   DMPC H6S  HAL2   0.090000        1.0079           0
   15430 O1   20   DMPC C27  CTL2  -0.180000       12.0107           0
   15431 O1   20   DMPC H7R  HAL2   0.090000        1.0079           0
   15432 O1   20   DMPC H7S  HAL2   0.090000        1.0079           0
   15433 O1   20   DMPC C28  CTL2  -0.180000       12.0107           0
   15434 O1   20   DMPC H8R  HAL2   0.090000        1.0079           0
   15435 O1   20   DMPC H8S  HAL2   0.090000        1.0079           0
   15436 O1   20   DMPC C29  CTL2  -0.180000       12.0107           0
   15437 O1   20   DMPC H9R  HAL2   0.090000        1.0079           0
   15438 O1   20   DMPC H9S  HAL2   0.090000        1.0079           0
   15439 O1   20   DMPC C210 CTL2  -0.180000       12.0107           0
   15440 O1   20   DMPC H10R HAL2   0.090000        1.0079           0
   15441 O1   20   DMPC H10S HAL2   0.090000        1.0079           0
   15442 O1   20   DMPC C211 CTL2  -0.180000       12.0107           0
   15443 O1   20   DMPC H11R HAL2   0.090000        1.0079           0
   15444 O1   20   DMPC H11S HAL2   0.090000        1.0079           0
   15445 O1   20   DMPC C212 CTL2  -0.180000       12.0107           0
   15446 O1   20   DMPC H12R HAL2   0.090000        1.0079           0
   15447 O1   20   DMPC H12S HAL2   0.090000        1.0079           0
   15448 O1   20   DMPC C213 CTL2  -0.180000       12.0107           0
   15449 O1   20   DMPC H13R HAL2   0.090000        1.0079           0
   15450 O1   20   DMPC H13S HAL2   0.090000        1.0079           0
   15451 O1   20   DMPC C214 CTL3  -0.270000       12.0107           0
   15452 O1   20   DMPC H14R HAL3   0.090000        1.0079           0
   15453 O1   20   DMPC H14S HAL3   0.090000        1.0079           0
   15454 O1   20   DMPC H14T HAL3   0.090000        1.0079           0
   15455 O1   20   DMPC C33  CTL2  -0.180000       12.0107           0
   15456 O1   20   DMPC H3X  HAL2   0.090000        1.0079           0
   15457 O1   20   DMPC H3Y  HAL2   0.090000        1.0079           0
   15458 O1   20   DMPC C34  CTL2  -0.180000       12.0107           0
   15459 O1   20   DMPC H4X  HAL2   0.090000        1.0079           0
   15460 O1   20   DMPC H4Y  HAL2   0.090000        1.0079           0
   15461 O1   20   DMPC C35  CTL2  -0.180000       12.0107           0
   15462 O1   20   DMPC H5X  HAL2   0.090000        1.0079           0
   15463 O1   20   DMPC H5Y  HAL2   0.090000        1.0079           0
   15464 O1   20   DMPC C36  CTL2  -0.180000       12.0107           0
   15465 O1   20   DMPC H6X  HAL2   0.090000        1.0079           0
   15466 O1   20   DMPC H6Y  HAL2   0.090000        1.0079           0
   15467 O1   20   DMPC C37  CTL2  -0.180000       12.0107           0
   15468 O1   20   DMPC H7X  HAL2   0.090000        1.0079           0
   15469 O1   20   DMPC H7Y  HAL2   0.090000        1.0079           0
   15470 O1   20   DMPC C38  CTL2  -0.180000       12.0107           0
   15471 O1   20   DMPC H8X  HAL2   0.090000        1.0079           0
   15472 O1   20   DMPC H8Y  HAL2   0.090000        1.0079           0
   15473 O1   20   DMPC C39  CTL2  -0.180000       12.0107           0
   15474 O1   20   DMPC H9X  HAL2   0.090000        1.0079           0
   15475 O1   20   DMPC H9Y  HAL2   0.090000        1.0079           0
   15476 O1   20   DMPC C310 CTL2  -0.180000       12.0107           0
   15477 O1   20   DMPC H10X HAL2   0.090000        1.0079           0
   15478 O1   20   DMPC H10Y HAL2   0.090000        1.0079           0
   15479 O1   20   DMPC C311 CTL2  -0.180000       12.0107           0
   15480 O1   20   DMPC H11X HAL2   0.090000        1.0079           0
   15481 O1   20   DMPC H11Y HAL2   0.090000        1.0079           0
   15482 O1   20   DMPC C312 CTL2  -0.180000       12.0107           0
   15483 O1   20   DMPC H12X HAL2   0.090000        1.0079           0
   15484 O1   20   DMPC H12Y HAL2   0.090000        1.0079           0
   15485 O1   20   DMPC C313 CTL2  -0.180000       12.0107           0
   15486 O1   20   DMPC H13X HAL2   0.090000        1.0079           0
   15487 O1   20   DMPC H13Y HAL2   0.090000        1.0079           0
   15488 O1   20   DMPC C314 CTL3  -0.270000       12.0107           0
   15489 O1   20   DMPC H14X HAL3   0.090000        1.0079           0
   15490 O1   20   DMPC H14Y HAL3   0.090000        1.0079           0
   15491 O1   20   DMPC H14Z HAL3   0.090000        1.0079           0
   15492 O1   21   DMPC N    NTL   -0.600000       14.0067           0
   15493 O1   21   DMPC C13  CTL5  -0.350000       12.0107           0
   15494 O1   21   DMPC H13A HL     0.250000        1.0079           0
   15495 O1   21   DMPC H13B HL     0.250000        1.0079           0
   15496 O1   21   DMPC H13C HL     0.250000        1.0079           0
   15497 O1   21   DMPC C14  CTL5  -0.350000       12.0107           0
   15498 O1   21   DMPC H14A HL     0.250000        1.0079           0
   15499 O1   21   DMPC H14B HL     0.250000        1.0079           0
   15500 O1   21   DMPC H14C HL     0.250000        1.0079           0
   15501 O1   21   DMPC C15  CTL5  -0.350000       12.0107           0
   15502 O1   21   DMPC H15A HL     0.250000        1.0079           0
   15503 O1   21   DMPC H15B HL     0.250000        1.0079           0
   15504 O1   21   DMPC H15C HL     0.250000        1.0079           0
   15505 O1   21   DMPC C12  CTL2  -0.100000       12.0107           0
   15506 O1   21   DMPC H12A HL     0.250000        1.0079           0
   15507 O1   21   DMPC H12B HL     0.250000        1.0079           0
   15508 O1   21   DMPC C11  CTL2  -0.080000       12.0107           0
   15509 O1   21   DMPC H11A HAL2   0.090000        1.0079           0
   15510 O1   21   DMPC H11B HAL2   0.090000        1.0079           0
   15511 O1   21   DMPC P    PL     1.500000       30.9738           0
   15512 O1   21   DMPC O13  O2L   -0.780000       15.9994           0
   15513 O1   21   DMPC O14  O2L   -0.780000       15.9994           0
   15514 O1   21   DMPC O11  OSLP  -0.570000       15.9994           0
   15515 O1   21   DMPC O12  OSLP  -0.570000       15.9994           0
   15516 O1   21   DMPC C1   CTL2  -0.080000       12.0107           0
   15517 O1   21   DMPC HA   HAL2   0.090000        1.0079           0
   15518 O1   21   DMPC HB   HAL2   0.090000        1.0079           0
   15519 O1   21   DMPC C2   CTL1   0.170000       12.0107           0
   15520 O1   21   DMPC HS   HAL1   0.090000        1.0079           0
   15521 O1   21   DMPC O21  OSL   -0.490000       15.9994           0
   15522 O1   21   DMPC C21  CL     0.900000       12.0107           0
   15523 O1   21   DMPC O22  OBL   -0.630000       15.9994           0
   15524 O1   21   DMPC C22  CTL2  -0.220000       12.0107           0
   15525 O1   21   DMPC H2R  HAL2   0.090000        1.0079           0
   15526 O1   21   DMPC H2S  HAL2   0.090000        1.0079           0
   15527 O1   21   DMPC C3   CTL2   0.080000       12.0107           0
   15528 O1   21   DMPC HX   HAL2   0.090000        1.0079           0
   15529 O1   21   DMPC HY   HAL2   0.090000        1.0079           0
   15530 O1   21   DMPC O31  OSL   -0.490000       15.9994           0
   15531 O1   21   DMPC C31  CL     0.900000       12.0107           0
   15532 O1   21   DMPC O32  OBL   -0.630000       15.9994           0
   15533 O1   21   DMPC C32  CTL2  -0.220000       12.0107           0
   15534 O1   21   DMPC H2X  HAL2   0.090000        1.0079           0
   15535 O1   21   DMPC H2Y  HAL2   0.090000        1.0079           0
   15536 O1   21   DMPC C23  CTL2  -0.180000       12.0107           0
   15537 O1   21   DMPC H3R  HAL2   0.090000        1.0079           0
   15538 O1   21   DMPC H3S  HAL2   0.090000        1.0079           0
   15539 O1   21   DMPC C24  CTL2  -0.180000       12.0107           0
   15540 O1   21   DMPC H4R  HAL2   0.090000        1.0079           0
   15541 O1   21   DMPC H4S  HAL2   0.090000        1.0079           0
   15542 O1   21   DMPC C25  CTL2  -0.180000       12.0107           0
   15543 O1   21   DMPC H5R  HAL2   0.090000        1.0079           0
   15544 O1   21   DMPC H5S  HAL2   0.090000        1.0079           0
   15545 O1   21   DMPC C26  CTL2  -0.180000       12.0107           0
   15546 O1   21   DMPC H6R  HAL2   0.090000        1.0079           0
   15547 O1   21   DMPC H6S  HAL2   0.090000        1.0079           0
   15548 O1   21   DMPC C27  CTL2  -0.180000       12.0107           0
   15549 O1   21   DMPC H7R  HAL2   0.090000        1.0079           0
   15550 O1   21   DMPC H7S  HAL2   0.090000        1.0079           0
   15551 O1   21   DMPC C28  CTL2  -0.180000       12.0107           0
   15552 O1   21   DMPC H8R  HAL2   0.090000        1.0079           0
   15553 O1   21   DMPC H8S  HAL2   0.090000        1.0079           0
   15554 O1   21   DMPC C29  CTL2  -0.180000       12.0107           0
   15555 O1   21   DMPC H9R  HAL2   0.090000        1.0079           0
   15556 O1   21   DMPC H9S  HAL2   0.090000        1.0079           0
   15557 O1   21   DMPC C210 CTL2  -0.180000       12.0107           0
   15558 O1   21   DMPC H10R HAL2   0.090000        1.0079           0
   15559 O1   21   DMPC H10S HAL2   0.090000        1.0079           0
   15560 O1   21   DMPC C211 CTL2  -0.180000       12.0107           0
   15561 O1   21   DMPC H11R HAL2   0.090000        1.0079           0
   15562 O1   21   DMPC H11S HAL2   0.090000        1.0079           0
   15563 O1   21   DMPC C212 CTL2  -0.180000       12.0107           0
   15564 O1   21   DMPC H12R HAL2   0.090000        1.0079           0
   15565 O1   21   DMPC H12S HAL2   0.090000        1.0079           0
   15566 O1   21   DMPC C213 CTL2  -0.180000       12.0107           0
   15567 O1   21   DMPC H13R HAL2   0.090000        1.0079           0
   15568 O1   21   DMPC H13S HAL2   0.090000        1.0079           0
   15569 O1   21   DMPC C214 CTL3  -0.270000       12.0107           0
   15570 O1   21   DMPC H14R HAL3   0.090000        1.0079           0
   15571 O1   21   DMPC H14S HAL3   0.090000        1.0079           0
   15572 O1   21   DMPC H14T HAL3   0.090000        1.0079           0
   15573 O1   21   DMPC C33  CTL2  -0.180000       12.0107           0
   15574 O1   21   DMPC H3X  HAL2   0.090000        1.0079           0
   15575 O1   21   DMPC H3Y  HAL2   0.090000        1.0079           0
   15576 O1   21   DMPC C34  CTL2  -0.180000       12.0107           0
   15577 O1   21   DMPC H4X  HAL2   0.090000        1.0079           0
   15578 O1   21   DMPC H4Y  HAL2   0.090000        1.0079           0
   15579 O1   21   DMPC C35  CTL2  -0.180000       12.0107           0
   15580 O1   21   DMPC H5X  HAL2   0.090000        1.0079           0
   15581 O1   21   DMPC H5Y  HAL2   0.090000        1.0079           0
   15582 O1   21   DMPC C36  CTL2  -0.180000       12.0107           0
   15583 O1   21   DMPC H6X  HAL2   0.090000        1.0079           0
   15584 O1   21   DMPC H6Y  HAL2   0.090000        1.0079           0
   15585 O1   21   DMPC C37  CTL2  -0.180000       12.0107           0
   15586 O1   21   DMPC H7X  HAL2   0.090000        1.0079           0
   15587 O1   21   DMPC H7Y  HAL2   0.090000        1.0079           0
   15588 O1   21   DMPC C38  CTL2  -0.180000       12.0107           0
   15589 O1   21   DMPC H8X  HAL2   0.090000        1.0079           0
   15590 O1   21   DMPC H8Y  HAL2   0.090000        1.0079           0
   15591 O1   21   DMPC C39  CTL2  -0.180000       12.0107           0
   15592 O1   21   DMPC H9X  HAL2   0.090000        1.0079           0
   15593 O1   21   DMPC H9Y  HAL2   0.090000        1.0079           0
   15594 O1   21   DMPC C310 CTL2  -0.180000       12.0107           0
   15595 O1   21   DMPC H10X HAL2   0.090000        1.0079           0
   15596 O1   21   DMPC H10Y HAL2   0.090000        1.0079           0
   15597 O1   21   DMPC C311 CTL2  -0.180000       12.0107           0
   15598 O1   21   DMPC H11X HAL2   0.090000        1.0079           0
   15599 O1   21   DMPC H11Y HAL2   0.090000        1.0079           0
   15600 O1   21   DMPC C312 CTL2  -0.180000       12.0107           0
   15601 O1   21   DMPC H12X HAL2   0.090000        1.0079           0
   15602 O1   21   DMPC H12Y HAL2   0.090000        1.0079           0
   15603 O1   21   DMPC C313 CTL2  -0.180000       12.0107           0
   15604 O1   21   DMPC H13X HAL2   0.090000        1.0079           0
   15605 O1   21   DMPC H13Y HAL2   0.090000        1.0079           0
   15606 O1   21   DMPC C314 CTL3  -0.270000       12.0107           0
   15607 O1   21   DMPC H14X HAL3   0.090000        1.0079           0
   15608 O1   21   DMPC H14Y HAL3   0.090000        1.0079           0
   15609 O1   21   DMPC H14Z HAL3   0.090000        1.0079           0
   15610 O1   22   DMPC N    NTL   -0.600000       14.0067           0
   15611 O1   22   DMPC C13  CTL5  -0.350000       12.0107           0
   15612 O1   22   DMPC H13A HL     0.250000        1.0079           0
   15613 O1   22   DMPC H13B HL     0.250000        1.0079           0
   15614 O1   22   DMPC H13C HL     0.250000        1.0079           0
   15615 O1   22   DMPC C14  CTL5  -0.350000       12.0107           0
   15616 O1   22   DMPC H14A HL     0.250000        1.0079           0
   15617 O1   22   DMPC H14B HL     0.250000        1.0079           0
   15618 O1   22   DMPC H14C HL     0.250000        1.0079           0
   15619 O1   22   DMPC C15  CTL5  -0.350000       12.0107           0
   15620 O1   22   DMPC H15A HL     0.250000        1.0079           0
   15621 O1   22   DMPC H15B HL     0.250000        1.0079           0
   15622 O1   22   DMPC H15C HL     0.250000        1.0079           0
   15623 O1   22   DMPC C12  CTL2  -0.100000       12.0107           0
   15624 O1   22   DMPC H12A HL     0.250000        1.0079           0
   15625 O1   22   DMPC H12B HL     0.250000        1.0079           0
   15626 O1   22   DMPC C11  CTL2  -0.080000       12.0107           0
   15627 O1   22   DMPC H11A HAL2   0.090000        1.0079           0
   15628 O1   22   DMPC H11B HAL2   0.090000        1.0079           0
   15629 O1   22   DMPC P    PL     1.500000       30.9738           0
   15630 O1   22   DMPC O13  O2L   -0.780000       15.9994           0
   15631 O1   22   DMPC O14  O2L   -0.780000       15.9994           0
   15632 O1   22   DMPC O11  OSLP  -0.570000       15.9994           0
   15633 O1   22   DMPC O12  OSLP  -0.570000       15.9994           0
   15634 O1   22   DMPC C1   CTL2  -0.080000       12.0107           0
   15635 O1   22   DMPC HA   HAL2   0.090000        1.0079           0
   15636 O1   22   DMPC HB   HAL2   0.090000        1.0079           0
   15637 O1   22   DMPC C2   CTL1   0.170000       12.0107           0
   15638 O1   22   DMPC HS   HAL1   0.090000        1.0079           0
   15639 O1   22   DMPC O21  OSL   -0.490000       15.9994           0
   15640 O1   22   DMPC C21  CL     0.900000       12.0107           0
   15641 O1   22   DMPC O22  OBL   -0.630000       15.9994           0
   15642 O1   22   DMPC C22  CTL2  -0.220000       12.0107           0
   15643 O1   22   DMPC H2R  HAL2   0.090000        1.0079           0
   15644 O1   22   DMPC H2S  HAL2   0.090000        1.0079           0
   15645 O1   22   DMPC C3   CTL2   0.080000       12.0107           0
   15646 O1   22   DMPC HX   HAL2   0.090000        1.0079           0
   15647 O1   22   DMPC HY   HAL2   0.090000        1.0079           0
   15648 O1   22   DMPC O31  OSL   -0.490000       15.9994           0
   15649 O1   22   DMPC C31  CL     0.900000       12.0107           0
   15650 O1   22   DMPC O32  OBL   -0.630000       15.9994           0
   15651 O1   22   DMPC C32  CTL2  -0.220000       12.0107           0
   15652 O1   22   DMPC H2X  HAL2   0.090000        1.0079           0
   15653 O1   22   DMPC H2Y  HAL2   0.090000        1.0079           0
   15654 O1   22   DMPC C23  CTL2  -0.180000       12.0107           0
   15655 O1   22   DMPC H3R  HAL2   0.090000        1.0079           0
   15656 O1   22   DMPC H3S  HAL2   0.090000        1.0079           0
   15657 O1   22   DMPC C24  CTL2  -0.180000       12.0107           0
   15658 O1   22   DMPC H4R  HAL2   0.090000        1.0079           0
   15659 O1   22   DMPC H4S  HAL2   0.090000        1.0079           0
   15660 O1   22   DMPC C25  CTL2  -0.180000       12.0107           0
   15661 O1   22   DMPC H5R  HAL2   0.090000        1.0079           0
   15662 O1   22   DMPC H5S  HAL2   0.090000        1.0079           0
   15663 O1   22   DMPC C26  CTL2  -0.180000       12.0107           0
   15664 O1   22   DMPC H6R  HAL2   0.090000        1.0079           0
   15665 O1   22   DMPC H6S  HAL2   0.090000        1.0079           0
   15666 O1   22   DMPC C27  CTL2  -0.180000       12.0107           0
   15667 O1   22   DMPC H7R  HAL2   0.090000        1.0079           0
   15668 O1   22   DMPC H7S  HAL2   0.090000        1.0079           0
   15669 O1   22   DMPC C28  CTL2  -0.180000       12.0107           0
   15670 O1   22   DMPC H8R  HAL2   0.090000        1.0079           0
   15671 O1   22   DMPC H8S  HAL2   0.090000        1.0079           0
   15672 O1   22   DMPC C29  CTL2  -0.180000       12.0107           0
   15673 O1   22   DMPC H9R  HAL2   0.090000        1.0079           0
   15674 O1   22   DMPC H9S  HAL2   0.090000        1.0079           0
   15675 O1   22   DMPC C210 CTL2  -0.180000       12.0107           0
   15676 O1   22   DMPC H10R HAL2   0.090000        1.0079           0
   15677 O1   22   DMPC H10S HAL2   0.090000        1.0079           0
   15678 O1   22   DMPC C211 CTL2  -0.180000       12.0107           0
   15679 O1   22   DMPC H11R HAL2   0.090000        1.0079           0
   15680 O1   22   DMPC H11S HAL2   0.090000        1.0079           0
   15681 O1   22   DMPC C212 CTL2  -0.180000       12.0107           0
   15682 O1   22   DMPC H12R HAL2   0.090000        1.0079           0
   15683 O1   22   DMPC H12S HAL2   0.090000        1.0079           0
   15684 O1   22   DMPC C213 CTL2  -0.180000       12.0107           0
   15685 O1   22   DMPC H13R HAL2   0.090000        1.0079           0
   15686 O1   22   DMPC H13S HAL2   0.090000        1.0079           0
   15687 O1   22   DMPC C214 CTL3  -0.270000       12.0107           0
   15688 O1   22   DMPC H14R HAL3   0.090000        1.0079           0
   15689 O1   22   DMPC H14S HAL3   0.090000        1.0079           0
   15690 O1   22   DMPC H14T HAL3   0.090000        1.0079           0
   15691 O1   22   DMPC C33  CTL2  -0.180000       12.0107           0
   15692 O1   22   DMPC H3X  HAL2   0.090000        1.0079           0
   15693 O1   22   DMPC H3Y  HAL2   0.090000        1.0079           0
   15694 O1   22   DMPC C34  CTL2  -0.180000       12.0107           0
   15695 O1   22   DMPC H4X  HAL2   0.090000        1.0079           0
   15696 O1   22   DMPC H4Y  HAL2   0.090000        1.0079           0
   15697 O1   22   DMPC C35  CTL2  -0.180000       12.0107           0
   15698 O1   22   DMPC H5X  HAL2   0.090000        1.0079           0
   15699 O1   22   DMPC H5Y  HAL2   0.090000        1.0079           0
   15700 O1   22   DMPC C36  CTL2  -0.180000       12.0107           0
   15701 O1   22   DMPC H6X  HAL2   0.090000        1.0079           0
   15702 O1   22   DMPC H6Y  HAL2   0.090000        1.0079           0
   15703 O1   22   DMPC C37  CTL2  -0.180000       12.0107           0
   15704 O1   22   DMPC H7X  HAL2   0.090000        1.0079           0
   15705 O1   22   DMPC H7Y  HAL2   0.090000        1.0079           0
   15706 O1   22   DMPC C38  CTL2  -0.180000       12.0107           0
   15707 O1   22   DMPC H8X  HAL2   0.090000        1.0079           0
   15708 O1   22   DMPC H8Y  HAL2   0.090000        1.0079           0
   15709 O1   22   DMPC C39  CTL2  -0.180000       12.0107           0
   15710 O1   22   DMPC H9X  HAL2   0.090000        1.0079           0
   15711 O1   22   DMPC H9Y  HAL2   0.090000        1.0079           0
   15712 O1   22   DMPC C310 CTL2  -0.180000       12.0107           0
   15713 O1   22   DMPC H10X HAL2   0.090000        1.0079           0
   15714 O1   22   DMPC H10Y HAL2   0.090000        1.0079           0
   15715 O1   22   DMPC C311 CTL2  -0.180000       12.0107           0
   15716 O1   22   DMPC H11X HAL2   0.090000        1.0079           0
   15717 O1   22   DMPC H11Y HAL2   0.090000        1.0079           0
   15718 O1   22   DMPC C312 CTL2  -0.180000       12.0107           0
   15719 O1   22   DMPC H12X HAL2   0.090000        1.0079           0
   15720 O1   22   DMPC H12Y HAL2   0.090000        1.0079           0
   15721 O1   22   DMPC C313 CTL2  -0.180000       12.0107           0
   15722 O1   22   DMPC H13X HAL2   0.090000        1.0079           0
   15723 O1   22   DMPC H13Y HAL2   0.090000        1.0079           0
   15724 O1   22   DMPC C314 CTL3  -0.270000       12.0107           0
   15725 O1   22   DMPC H14X HAL3   0.090000        1.0079           0
   15726 O1   22   DMPC H14Y HAL3   0.090000        1.0079           0
   15727 O1   22   DMPC H14Z HAL3   0.090000        1.0079           0
   15728 O1   23   DMPC N    NTL   -0.600000       14.0067           0
   15729 O1   23   DMPC C13  CTL5  -0.350000       12.0107           0
   15730 O1   23   DMPC H13A HL     0.250000        1.0079           0
   15731 O1   23   DMPC H13B HL     0.250000        1.0079           0
   15732 O1   23   DMPC H13C HL     0.250000        1.0079           0
   15733 O1   23   DMPC C14  CTL5  -0.350000       12.0107           0
   15734 O1   23   DMPC H14A HL     0.250000        1.0079           0
   15735 O1   23   DMPC H14B HL     0.250000        1.0079           0
   15736 O1   23   DMPC H14C HL     0.250000        1.0079           0
   15737 O1   23   DMPC C15  CTL5  -0.350000       12.0107           0
   15738 O1   23   DMPC H15A HL     0.250000        1.0079           0
   15739 O1   23   DMPC H15B HL     0.250000        1.0079           0
   15740 O1   23   DMPC H15C HL     0.250000        1.0079           0
   15741 O1   23   DMPC C12  CTL2  -0.100000       12.0107           0
   15742 O1   23   DMPC H12A HL     0.250000        1.0079           0
   15743 O1   23   DMPC H12B HL     0.250000        1.0079           0
   15744 O1   23   DMPC C11  CTL2  -0.080000       12.0107           0
   15745 O1   23   DMPC H11A HAL2   0.090000        1.0079           0
   15746 O1   23   DMPC H11B HAL2   0.090000        1.0079           0
   15747 O1   23   DMPC P    PL     1.500000       30.9738           0
   15748 O1   23   DMPC O13  O2L   -0.780000       15.9994           0
   15749 O1   23   DMPC O14  O2L   -0.780000       15.9994           0
   15750 O1   23   DMPC O11  OSLP  -0.570000       15.9994           0
   15751 O1   23   DMPC O12  OSLP  -0.570000       15.9994           0
   15752 O1   23   DMPC C1   CTL2  -0.080000       12.0107           0
   15753 O1   23   DMPC HA   HAL2   0.090000        1.0079           0
   15754 O1   23   DMPC HB   HAL2   0.090000        1.0079           0
   15755 O1   23   DMPC C2   CTL1   0.170000       12.0107           0
   15756 O1   23   DMPC HS   HAL1   0.090000        1.0079           0
   15757 O1   23   DMPC O21  OSL   -0.490000       15.9994           0
   15758 O1   23   DMPC C21  CL     0.900000       12.0107           0
   15759 O1   23   DMPC O22  OBL   -0.630000       15.9994           0
   15760 O1   23   DMPC C22  CTL2  -0.220000       12.0107           0
   15761 O1   23   DMPC H2R  HAL2   0.090000        1.0079           0
   15762 O1   23   DMPC H2S  HAL2   0.090000        1.0079           0
   15763 O1   23   DMPC C3   CTL2   0.080000       12.0107           0
   15764 O1   23   DMPC HX   HAL2   0.090000        1.0079           0
   15765 O1   23   DMPC HY   HAL2   0.090000        1.0079           0
   15766 O1   23   DMPC O31  OSL   -0.490000       15.9994           0
   15767 O1   23   DMPC C31  CL     0.900000       12.0107           0
   15768 O1   23   DMPC O32  OBL   -0.630000       15.9994           0
   15769 O1   23   DMPC C32  CTL2  -0.220000       12.0107           0
   15770 O1   23   DMPC H2X  HAL2   0.090000        1.0079           0
   15771 O1   23   DMPC H2Y  HAL2   0.090000        1.0079           0
   15772 O1   23   DMPC C23  CTL2  -0.180000       12.0107           0
   15773 O1   23   DMPC H3R  HAL2   0.090000        1.0079           0
   15774 O1   23   DMPC H3S  HAL2   0.090000        1.0079           0
   15775 O1   23   DMPC C24  CTL2  -0.180000       12.0107           0
   15776 O1   23   DMPC H4R  HAL2   0.090000        1.0079           0
   15777 O1   23   DMPC H4S  HAL2   0.090000        1.0079           0
   15778 O1   23   DMPC C25  CTL2  -0.180000       12.0107           0
   15779 O1   23   DMPC H5R  HAL2   0.090000        1.0079           0
   15780 O1   23   DMPC H5S  HAL2   0.090000        1.0079           0
   15781 O1   23   DMPC C26  CTL2  -0.180000       12.0107           0
   15782 O1   23   DMPC H6R  HAL2   0.090000        1.0079           0
   15783 O1   23   DMPC H6S  HAL2   0.090000        1.0079           0
   15784 O1   23   DMPC C27  CTL2  -0.180000       12.0107           0
   15785 O1   23   DMPC H7R  HAL2   0.090000        1.0079           0
   15786 O1   23   DMPC H7S  HAL2   0.090000        1.0079           0
   15787 O1   23   DMPC C28  CTL2  -0.180000       12.0107           0
   15788 O1   23   DMPC H8R  HAL2   0.090000        1.0079           0
   15789 O1   23   DMPC H8S  HAL2   0.090000        1.0079           0
   15790 O1   23   DMPC C29  CTL2  -0.180000       12.0107           0
   15791 O1   23   DMPC H9R  HAL2   0.090000        1.0079           0
   15792 O1   23   DMPC H9S  HAL2   0.090000        1.0079           0
   15793 O1   23   DMPC C210 CTL2  -0.180000       12.0107           0
   15794 O1   23   DMPC H10R HAL2   0.090000        1.0079           0
   15795 O1   23   DMPC H10S HAL2   0.090000        1.0079           0
   15796 O1   23   DMPC C211 CTL2  -0.180000       12.0107           0
   15797 O1   23   DMPC H11R HAL2   0.090000        1.0079           0
   15798 O1   23   DMPC H11S HAL2   0.090000        1.0079           0
   15799 O1   23   DMPC C212 CTL2  -0.180000       12.0107           0
   15800 O1   23   DMPC H12R HAL2   0.090000        1.0079           0
   15801 O1   23   DMPC H12S HAL2   0.090000        1.0079           0
   15802 O1   23   DMPC C213 CTL2  -0.180000       12.0107           0
   15803 O1   23   DMPC H13R HAL2   0.090000        1.0079           0
   15804 O1   23   DMPC H13S HAL2   0.090000        1.0079           0
   15805 O1   23   DMPC C214 CTL3  -0.270000       12.0107           0
   15806 O1   23   DMPC H14R HAL3   0.090000        1.0079           0
   15807 O1   23   DMPC H14S HAL3   0.090000        1.0079           0
   15808 O1   23   DMPC H14T HAL3   0.090000        1.0079           0
   15809 O1   23   DMPC C33  CTL2  -0.180000       12.0107           0
   15810 O1   23   DMPC H3X  HAL2   0.090000        1.0079           0
   15811 O1   23   DMPC H3Y  HAL2   0.090000        1.0079           0
   15812 O1   23   DMPC C34  CTL2  -0.180000       12.0107           0
   15813 O1   23   DMPC H4X  HAL2   0.090000        1.0079           0
   15814 O1   23   DMPC H4Y  HAL2   0.090000        1.0079           0
   15815 O1   23   DMPC C35  CTL2  -0.180000       12.0107           0
   15816 O1   23   DMPC H5X  HAL2   0.090000        1.0079           0
   15817 O1   23   DMPC H5Y  HAL2   0.090000        1.0079           0
   15818 O1   23   DMPC C36  CTL2  -0.180000       12.0107           0
   15819 O1   23   DMPC H6X  HAL2   0.090000        1.0079           0
   15820 O1   23   DMPC H6Y  HAL2   0.090000        1.0079           0
   15821 O1   23   DMPC C37  CTL2  -0.180000       12.0107           0
   15822 O1   23   DMPC H7X  HAL2   0.090000        1.0079           0
   15823 O1   23   DMPC H7Y  HAL2   0.090000        1.0079           0
   15824 O1   23   DMPC C38  CTL2  -0.180000       12.0107           0
   15825 O1   23   DMPC H8X  HAL2   0.090000        1.0079           0
   15826 O1   23   DMPC H8Y  HAL2   0.090000        1.0079           0
   15827 O1   23   DMPC C39  CTL2  -0.180000       12.0107           0
   15828 O1   23   DMPC H9X  HAL2   0.090000        1.0079           0
   15829 O1   23   DMPC H9Y  HAL2   0.090000        1.0079           0
   15830 O1   23   DMPC C310 CTL2  -0.180000       12.0107           0
   15831 O1   23   DMPC H10X HAL2   0.090000        1.0079           0
   15832 O1   23   DMPC H10Y HAL2   0.090000        1.0079           0
   15833 O1   23   DMPC C311 CTL2  -0.180000       12.0107           0
   15834 O1   23   DMPC H11X HAL2   0.090000        1.0079           0
   15835 O1   23   DMPC H11Y HAL2   0.090000        1.0079           0
   15836 O1   23   DMPC C312 CTL2  -0.180000       12.0107           0
   15837 O1   23   DMPC H12X HAL2   0.090000        1.0079           0
   15838 O1   23   DMPC H12Y HAL2   0.090000        1.0079           0
   15839 O1   23   DMPC C313 CTL2  -0.180000       12.0107           0
   15840 O1   23   DMPC H13X HAL2   0.090000        1.0079           0
   15841 O1   23   DMPC H13Y HAL2   0.090000        1.0079           0
   15842 O1   23   DMPC C314 CTL3  -0.270000       12.0107           0
   15843 O1   23   DMPC H14X HAL3   0.090000        1.0079           0
   15844 O1   23   DMPC H14Y HAL3   0.090000        1.0079           0
   15845 O1   23   DMPC H14Z HAL3   0.090000        1.0079           0
   15846 O1   24   DMPC N    NTL   -0.600000       14.0067           0
   15847 O1   24   DMPC C13  CTL5  -0.350000       12.0107           0
   15848 O1   24   DMPC H13A HL     0.250000        1.0079           0
   15849 O1   24   DMPC H13B HL     0.250000        1.0079           0
   15850 O1   24   DMPC H13C HL     0.250000        1.0079           0
   15851 O1   24   DMPC C14  CTL5  -0.350000       12.0107           0
   15852 O1   24   DMPC H14A HL     0.250000        1.0079           0
   15853 O1   24   DMPC H14B HL     0.250000        1.0079           0
   15854 O1   24   DMPC H14C HL     0.250000        1.0079           0
   15855 O1   24   DMPC C15  CTL5  -0.350000       12.0107           0
   15856 O1   24   DMPC H15A HL     0.250000        1.0079           0
   15857 O1   24   DMPC H15B HL     0.250000        1.0079           0
   15858 O1   24   DMPC H15C HL     0.250000        1.0079           0
   15859 O1   24   DMPC C12  CTL2  -0.100000       12.0107           0
   15860 O1   24   DMPC H12A HL     0.250000        1.0079           0
   15861 O1   24   DMPC H12B HL     0.250000        1.0079           0
   15862 O1   24   DMPC C11  CTL2  -0.080000       12.0107           0
   15863 O1   24   DMPC H11A HAL2   0.090000        1.0079           0
   15864 O1   24   DMPC H11B HAL2   0.090000        1.0079           0
   15865 O1   24   DMPC P    PL     1.500000       30.9738           0
   15866 O1   24   DMPC O13  O2L   -0.780000       15.9994           0
   15867 O1   24   DMPC O14  O2L   -0.780000       15.9994           0
   15868 O1   24   DMPC O11  OSLP  -0.570000       15.9994           0
   15869 O1   24   DMPC O12  OSLP  -0.570000       15.9994           0
   15870 O1   24   DMPC C1   CTL2  -0.080000       12.0107           0
   15871 O1   24   DMPC HA   HAL2   0.090000        1.0079           0
   15872 O1   24   DMPC HB   HAL2   0.090000        1.0079           0
   15873 O1   24   DMPC C2   CTL1   0.170000       12.0107           0
   15874 O1   24   DMPC HS   HAL1   0.090000        1.0079           0
   15875 O1   24   DMPC O21  OSL   -0.490000       15.9994           0
   15876 O1   24   DMPC C21  CL     0.900000       12.0107           0
   15877 O1   24   DMPC O22  OBL   -0.630000       15.9994           0
   15878 O1   24   DMPC C22  CTL2  -0.220000       12.0107           0
   15879 O1   24   DMPC H2R  HAL2   0.090000        1.0079           0
   15880 O1   24   DMPC H2S  HAL2   0.090000        1.0079           0
   15881 O1   24   DMPC C3   CTL2   0.080000       12.0107           0
   15882 O1   24   DMPC HX   HAL2   0.090000        1.0079           0
   15883 O1   24   DMPC HY   HAL2   0.090000        1.0079           0
   15884 O1   24   DMPC O31  OSL   -0.490000       15.9994           0
   15885 O1   24   DMPC C31  CL     0.900000       12.0107           0
   15886 O1   24   DMPC O32  OBL   -0.630000       15.9994           0
   15887 O1   24   DMPC C32  CTL2  -0.220000       12.0107           0
   15888 O1   24   DMPC H2X  HAL2   0.090000        1.0079           0
   15889 O1   24   DMPC H2Y  HAL2   0.090000        1.0079           0
   15890 O1   24   DMPC C23  CTL2  -0.180000       12.0107           0
   15891 O1   24   DMPC H3R  HAL2   0.090000        1.0079           0
   15892 O1   24   DMPC H3S  HAL2   0.090000        1.0079           0
   15893 O1   24   DMPC C24  CTL2  -0.180000       12.0107           0
   15894 O1   24   DMPC H4R  HAL2   0.090000        1.0079           0
   15895 O1   24   DMPC H4S  HAL2   0.090000        1.0079           0
   15896 O1   24   DMPC C25  CTL2  -0.180000       12.0107           0
   15897 O1   24   DMPC H5R  HAL2   0.090000        1.0079           0
   15898 O1   24   DMPC H5S  HAL2   0.090000        1.0079           0
   15899 O1   24   DMPC C26  CTL2  -0.180000       12.0107           0
   15900 O1   24   DMPC H6R  HAL2   0.090000        1.0079           0
   15901 O1   24   DMPC H6S  HAL2   0.090000        1.0079           0
   15902 O1   24   DMPC C27  CTL2  -0.180000       12.0107           0
   15903 O1   24   DMPC H7R  HAL2   0.090000        1.0079           0
   15904 O1   24   DMPC H7S  HAL2   0.090000        1.0079           0
   15905 O1   24   DMPC C28  CTL2  -0.180000       12.0107           0
   15906 O1   24   DMPC H8R  HAL2   0.090000        1.0079           0
   15907 O1   24   DMPC H8S  HAL2   0.090000        1.0079           0
   15908 O1   24   DMPC C29  CTL2  -0.180000       12.0107           0
   15909 O1   24   DMPC H9R  HAL2   0.090000        1.0079           0
   15910 O1   24   DMPC H9S  HAL2   0.090000        1.0079           0
   15911 O1   24   DMPC C210 CTL2  -0.180000       12.0107           0
   15912 O1   24   DMPC H10R HAL2   0.090000        1.0079           0
   15913 O1   24   DMPC H10S HAL2   0.090000        1.0079           0
   15914 O1   24   DMPC C211 CTL2  -0.180000       12.0107           0
   15915 O1   24   DMPC H11R HAL2   0.090000        1.0079           0
   15916 O1   24   DMPC H11S HAL2   0.090000        1.0079           0
   15917 O1   24   DMPC C212 CTL2  -0.180000       12.0107           0
   15918 O1   24   DMPC H12R HAL2   0.090000        1.0079           0
   15919 O1   24   DMPC H12S HAL2   0.090000        1.0079           0
   15920 O1   24   DMPC C213 CTL2  -0.180000       12.0107           0
   15921 O1   24   DMPC H13R HAL2   0.090000        1.0079           0
   15922 O1   24   DMPC H13S HAL2   0.090000        1.0079           0
   15923 O1   24   DMPC C214 CTL3  -0.270000       12.0107           0
   15924 O1   24   DMPC H14R HAL3   0.090000        1.0079           0
   15925 O1   24   DMPC H14S HAL3   0.090000        1.0079           0
   15926 O1   24   DMPC H14T HAL3   0.090000        1.0079           0
   15927 O1   24   DMPC C33  CTL2  -0.180000       12.0107           0
   15928 O1   24   DMPC H3X  HAL2   0.090000        1.0079           0
   15929 O1   24   DMPC H3Y  HAL2   0.090000        1.0079           0
   15930 O1   24   DMPC C34  CTL2  -0.180000       12.0107           0
   15931 O1   24   DMPC H4X  HAL2   0.090000        1.0079           0
   15932 O1   24   DMPC H4Y  HAL2   0.090000        1.0079           0
   15933 O1   24   DMPC C35  CTL2  -0.180000       12.0107           0
   15934 O1   24   DMPC H5X  HAL2   0.090000        1.0079           0
   15935 O1   24   DMPC H5Y  HAL2   0.090000        1.0079           0
   15936 O1   24   DMPC C36  CTL2  -0.180000       12.0107           0
   15937 O1   24   DMPC H6X  HAL2   0.090000        1.0079           0
   15938 O1   24   DMPC H6Y  HAL2   0.090000        1.0079           0
   15939 O1   24   DMPC C37  CTL2  -0.180000       12.0107           0
   15940 O1   24   DMPC H7X  HAL2   0.090000        1.0079           0
   15941 O1   24   DMPC H7Y  HAL2   0.090000        1.0079           0
   15942 O1   24   DMPC C38  CTL2  -0.180000       12.0107           0
   15943 O1   24   DMPC H8X  HAL2   0.090000        1.0079           0
   15944 O1   24   DMPC H8Y  HAL2   0.090000        1.0079           0
   15945 O1   24   DMPC C39  CTL2  -0.180000       12.0107           0
   15946 O1   24   DMPC H9X  HAL2   0.090000        1.0079           0
   15947 O1   24   DMPC H9Y  HAL2   0.090000        1.0079           0
   15948 O1   24   DMPC C310 CTL2  -0.180000       12.0107           0
   15949 O1   24   DMPC H10X HAL2   0.090000        1.0079           0
   15950 O1   24   DMPC H10Y HAL2   0.090000        1.0079           0
   15951 O1   24   DMPC C311 CTL2  -0.180000       12.0107           0
   15952 O1   24   DMPC H11X HAL2   0.090000        1.0079           0
   15953 O1   24   DMPC H11Y HAL2   0.090000        1.0079           0
   15954 O1   24   DMPC C312 CTL2  -0.180000       12.0107           0
   15955 O1   24   DMPC H12X HAL2   0.090000        1.0079           0
   15956 O1   24   DMPC H12Y HAL2   0.090000        1.0079           0
   15957 O1   24   DMPC C313 CTL2  -0.180000       12.0107           0
   15958 O1   24   DMPC H13X HAL2   0.090000        1.0079           0
   15959 O1   24   DMPC H13Y HAL2   0.090000        1.0079           0
   15960 O1   24   DMPC C314 CTL3  -0.270000       12.0107           0
   15961 O1   24   DMPC H14X HAL3   0.090000        1.0079           0
   15962 O1   24   DMPC H14Y HAL3   0.090000        1.0079           0
   15963 O1   24   DMPC H14Z HAL3   0.090000        1.0079           0
   15964 O1   25   DMPC N    NTL   -0.600000       14.0067           0
   15965 O1   25   DMPC C13  CTL5  -0.350000       12.0107           0
   15966 O1   25   DMPC H13A HL     0.250000        1.0079           0
   15967 O1   25   DMPC H13B HL     0.250000        1.0079           0
   15968 O1   25   DMPC H13C HL     0.250000        1.0079           0
   15969 O1   25   DMPC C14  CTL5  -0.350000       12.0107           0
   15970 O1   25   DMPC H14A HL     0.250000        1.0079           0
   15971 O1   25   DMPC H14B HL     0.250000        1.0079           0
   15972 O1   25   DMPC H14C HL     0.250000        1.0079           0
   15973 O1   25   DMPC C15  CTL5  -0.350000       12.0107           0
   15974 O1   25   DMPC H15A HL     0.250000        1.0079           0
   15975 O1   25   DMPC H15B HL     0.250000        1.0079           0
   15976 O1   25   DMPC H15C HL     0.250000        1.0079           0
   15977 O1   25   DMPC C12  CTL2  -0.100000       12.0107           0
   15978 O1   25   DMPC H12A HL     0.250000        1.0079           0
   15979 O1   25   DMPC H12B HL     0.250000        1.0079           0
   15980 O1   25   DMPC C11  CTL2  -0.080000       12.0107           0
   15981 O1   25   DMPC H11A HAL2   0.090000        1.0079           0
   15982 O1   25   DMPC H11B HAL2   0.090000        1.0079           0
   15983 O1   25   DMPC P    PL     1.500000       30.9738           0
   15984 O1   25   DMPC O13  O2L   -0.780000       15.9994           0
   15985 O1   25   DMPC O14  O2L   -0.780000       15.9994           0
   15986 O1   25   DMPC O11  OSLP  -0.570000       15.9994           0
   15987 O1   25   DMPC O12  OSLP  -0.570000       15.9994           0
   15988 O1   25   DMPC C1   CTL2  -0.080000       12.0107           0
   15989 O1   25   DMPC HA   HAL2   0.090000        1.0079           0
   15990 O1   25   DMPC HB   HAL2   0.090000        1.0079           0
   15991 O1   25   DMPC C2   CTL1   0.170000       12.0107           0
   15992 O1   25   DMPC HS   HAL1   0.090000        1.0079           0
   15993 O1   25   DMPC O21  OSL   -0.490000       15.9994           0
   15994 O1   25   DMPC C21  CL     0.900000       12.0107           0
   15995 O1   25   DMPC O22  OBL   -0.630000       15.9994           0
   15996 O1   25   DMPC C22  CTL2  -0.220000       12.0107           0
   15997 O1   25   DMPC H2R  HAL2   0.090000        1.0079           0
   15998 O1   25   DMPC H2S  HAL2   0.090000        1.0079           0
   15999 O1   25   DMPC C3   CTL2   0.080000       12.0107           0
   16000 O1   25   DMPC HX   HAL2   0.090000        1.0079           0
   16001 O1   25   DMPC HY   HAL2   0.090000        1.0079           0
   16002 O1   25   DMPC O31  OSL   -0.490000       15.9994           0
   16003 O1   25   DMPC C31  CL     0.900000       12.0107           0
   16004 O1   25   DMPC O32  OBL   -0.630000       15.9994           0
   16005 O1   25   DMPC C32  CTL2  -0.220000       12.0107           0
   16006 O1   25   DMPC H2X  HAL2   0.090000        1.0079           0
   16007 O1   25   DMPC H2Y  HAL2   0.090000        1.0079           0
   16008 O1   25   DMPC C23  CTL2  -0.180000       12.0107           0
   16009 O1   25   DMPC H3R  HAL2   0.090000        1.0079           0
   16010 O1   25   DMPC H3S  HAL2   0.090000        1.0079           0
   16011 O1   25   DMPC C24  CTL2  -0.180000       12.0107           0
   16012 O1   25   DMPC H4R  HAL2   0.090000        1.0079           0
   16013 O1   25   DMPC H4S  HAL2   0.090000        1.0079           0
   16014 O1   25   DMPC C25  CTL2  -0.180000       12.0107           0
   16015 O1   25   DMPC H5R  HAL2   0.090000        1.0079           0
   16016 O1   25   DMPC H5S  HAL2   0.090000        1.0079           0
   16017 O1   25   DMPC C26  CTL2  -0.180000       12.0107           0
   16018 O1   25   DMPC H6R  HAL2   0.090000        1.0079           0
   16019 O1   25   DMPC H6S  HAL2   0.090000        1.0079           0
   16020 O1   25   DMPC C27  CTL2  -0.180000       12.0107           0
   16021 O1   25   DMPC H7R  HAL2   0.090000        1.0079           0
   16022 O1   25   DMPC H7S  HAL2   0.090000        1.0079           0
   16023 O1   25   DMPC C28  CTL2  -0.180000       12.0107           0
   16024 O1   25   DMPC H8R  HAL2   0.090000        1.0079           0
   16025 O1   25   DMPC H8S  HAL2   0.090000        1.0079           0
   16026 O1   25   DMPC C29  CTL2  -0.180000       12.0107           0
   16027 O1   25   DMPC H9R  HAL2   0.090000        1.0079           0
   16028 O1   25   DMPC H9S  HAL2   0.090000        1.0079           0
   16029 O1   25   DMPC C210 CTL2  -0.180000       12.0107           0
   16030 O1   25   DMPC H10R HAL2   0.090000        1.0079           0
   16031 O1   25   DMPC H10S HAL2   0.090000        1.0079           0
   16032 O1   25   DMPC C211 CTL2  -0.180000       12.0107           0
   16033 O1   25   DMPC H11R HAL2   0.090000        1.0079           0
   16034 O1   25   DMPC H11S HAL2   0.090000        1.0079           0
   16035 O1   25   DMPC C212 CTL2  -0.180000       12.0107           0
   16036 O1   25   DMPC H12R HAL2   0.090000        1.0079           0
   16037 O1   25   DMPC H12S HAL2   0.090000        1.0079           0
   16038 O1   25   DMPC C213 CTL2  -0.180000       12.0107           0
   16039 O1   25   DMPC H13R HAL2   0.090000        1.0079           0
   16040 O1   25   DMPC H13S HAL2   0.090000        1.0079           0
   16041 O1   25   DMPC C214 CTL3  -0.270000       12.0107           0
   16042 O1   25   DMPC H14R HAL3   0.090000        1.0079           0
   16043 O1   25   DMPC H14S HAL3   0.090000        1.0079           0
   16044 O1   25   DMPC H14T HAL3   0.090000        1.0079           0
   16045 O1   25   DMPC C33  CTL2  -0.180000       12.0107           0
   16046 O1   25   DMPC H3X  HAL2   0.090000        1.0079           0
   16047 O1   25   DMPC H3Y  HAL2   0.090000        1.0079           0
   16048 O1   25   DMPC C34  CTL2  -0.180000       12.0107           0
   16049 O1   25   DMPC H4X  HAL2   0.090000        1.0079           0
   16050 O1   25   DMPC H4Y  HAL2   0.090000        1.0079           0
   16051 O1   25   DMPC C35  CTL2  -0.180000       12.0107           0
   16052 O1   25   DMPC H5X  HAL2   0.090000        1.0079           0
   16053 O1   25   DMPC H5Y  HAL2   0.090000        1.0079           0
   16054 O1   25   DMPC C36  CTL2  -0.180000       12.0107           0
   16055 O1   25   DMPC H6X  HAL2   0.090000        1.0079           0
   16056 O1   25   DMPC H6Y  HAL2   0.090000        1.0079           0
   16057 O1   25   DMPC C37  CTL2  -0.180000       12.0107           0
   16058 O1   25   DMPC H7X  HAL2   0.090000        1.0079           0
   16059 O1   25   DMPC H7Y  HAL2   0.090000        1.0079           0
   16060 O1   25   DMPC C38  CTL2  -0.180000       12.0107           0
   16061 O1   25   DMPC H8X  HAL2   0.090000        1.0079           0
   16062 O1   25   DMPC H8Y  HAL2   0.090000        1.0079           0
   16063 O1   25   DMPC C39  CTL2  -0.180000       12.0107           0
   16064 O1   25   DMPC H9X  HAL2   0.090000        1.0079           0
   16065 O1   25   DMPC H9Y  HAL2   0.090000        1.0079           0
   16066 O1   25   DMPC C310 CTL2  -0.180000       12.0107           0
   16067 O1   25   DMPC H10X HAL2   0.090000        1.0079           0
   16068 O1   25   DMPC H10Y HAL2   0.090000        1.0079           0
   16069 O1   25   DMPC C311 CTL2  -0.180000       12.0107           0
   16070 O1   25   DMPC H11X HAL2   0.090000        1.0079           0
   16071 O1   25   DMPC H11Y HAL2   0.090000        1.0079           0
   16072 O1   25   DMPC C312 CTL2  -0.180000       12.0107           0
   16073 O1   25   DMPC H12X HAL2   0.090000        1.0079           0
   16074 O1   25   DMPC H12Y HAL2   0.090000        1.0079           0
   16075 O1   25   DMPC C313 CTL2  -0.180000       12.0107           0
   16076 O1   25   DMPC H13X HAL2   0.090000        1.0079           0
   16077 O1   25   DMPC H13Y HAL2   0.090000        1.0079           0
   16078 O1   25   DMPC C314 CTL3  -0.270000       12.0107           0
   16079 O1   25   DMPC H14X HAL3   0.090000        1.0079           0
   16080 O1   25   DMPC H14Y HAL3   0.090000        1.0079           0
   16081 O1   25   DMPC H14Z HAL3   0.090000        1.0079           0
   16082 O1   26   DMPC N    NTL   -0.600000       14.0067           0
   16083 O1   26   DMPC C13  CTL5  -0.350000       12.0107           0
   16084 O1   26   DMPC H13A HL     0.250000        1.0079           0
   16085 O1   26   DMPC H13B HL     0.250000        1.0079           0
   16086 O1   26   DMPC H13C HL     0.250000        1.0079           0
   16087 O1   26   DMPC C14  CTL5  -0.350000       12.0107           0
   16088 O1   26   DMPC H14A HL     0.250000        1.0079           0
   16089 O1   26   DMPC H14B HL     0.250000        1.0079           0
   16090 O1   26   DMPC H14C HL     0.250000        1.0079           0
   16091 O1   26   DMPC C15  CTL5  -0.350000       12.0107           0
   16092 O1   26   DMPC H15A HL     0.250000        1.0079           0
   16093 O1   26   DMPC H15B HL     0.250000        1.0079           0
   16094 O1   26   DMPC H15C HL     0.250000        1.0079           0
   16095 O1   26   DMPC C12  CTL2  -0.100000       12.0107           0
   16096 O1   26   DMPC H12A HL     0.250000        1.0079           0
   16097 O1   26   DMPC H12B HL     0.250000        1.0079           0
   16098 O1   26   DMPC C11  CTL2  -0.080000       12.0107           0
   16099 O1   26   DMPC H11A HAL2   0.090000        1.0079           0
   16100 O1   26   DMPC H11B HAL2   0.090000        1.0079           0
   16101 O1   26   DMPC P    PL     1.500000       30.9738           0
   16102 O1   26   DMPC O13  O2L   -0.780000       15.9994           0
   16103 O1   26   DMPC O14  O2L   -0.780000       15.9994           0
   16104 O1   26   DMPC O11  OSLP  -0.570000       15.9994           0
   16105 O1   26   DMPC O12  OSLP  -0.570000       15.9994           0
   16106 O1   26   DMPC C1   CTL2  -0.080000       12.0107           0
   16107 O1   26   DMPC HA   HAL2   0.090000        1.0079           0
   16108 O1   26   DMPC HB   HAL2   0.090000        1.0079           0
   16109 O1   26   DMPC C2   CTL1   0.170000       12.0107           0
   16110 O1   26   DMPC HS   HAL1   0.090000        1.0079           0
   16111 O1   26   DMPC O21  OSL   -0.490000       15.9994           0
   16112 O1   26   DMPC C21  CL     0.900000       12.0107           0
   16113 O1   26   DMPC O22  OBL   -0.630000       15.9994           0
   16114 O1   26   DMPC C22  CTL2  -0.220000       12.0107           0
   16115 O1   26   DMPC H2R  HAL2   0.090000        1.0079           0
   16116 O1   26   DMPC H2S  HAL2   0.090000        1.0079           0
   16117 O1   26   DMPC C3   CTL2   0.080000       12.0107           0
   16118 O1   26   DMPC HX   HAL2   0.090000        1.0079           0
   16119 O1   26   DMPC HY   HAL2   0.090000        1.0079           0
   16120 O1   26   DMPC O31  OSL   -0.490000       15.9994           0
   16121 O1   26   DMPC C31  CL     0.900000       12.0107           0
   16122 O1   26   DMPC O32  OBL   -0.630000       15.9994           0
   16123 O1   26   DMPC C32  CTL2  -0.220000       12.0107           0
   16124 O1   26   DMPC H2X  HAL2   0.090000        1.0079           0
   16125 O1   26   DMPC H2Y  HAL2   0.090000        1.0079           0
   16126 O1   26   DMPC C23  CTL2  -0.180000       12.0107           0
   16127 O1   26   DMPC H3R  HAL2   0.090000        1.0079           0
   16128 O1   26   DMPC H3S  HAL2   0.090000        1.0079           0
   16129 O1   26   DMPC C24  CTL2  -0.180000       12.0107           0
   16130 O1   26   DMPC H4R  HAL2   0.090000        1.0079           0
   16131 O1   26   DMPC H4S  HAL2   0.090000        1.0079           0
   16132 O1   26   DMPC C25  CTL2  -0.180000       12.0107           0
   16133 O1   26   DMPC H5R  HAL2   0.090000        1.0079           0
   16134 O1   26   DMPC H5S  HAL2   0.090000        1.0079           0
   16135 O1   26   DMPC C26  CTL2  -0.180000       12.0107           0
   16136 O1   26   DMPC H6R  HAL2   0.090000        1.0079           0
   16137 O1   26   DMPC H6S  HAL2   0.090000        1.0079           0
   16138 O1   26   DMPC C27  CTL2  -0.180000       12.0107           0
   16139 O1   26   DMPC H7R  HAL2   0.090000        1.0079           0
   16140 O1   26   DMPC H7S  HAL2   0.090000        1.0079           0
   16141 O1   26   DMPC C28  CTL2  -0.180000       12.0107           0
   16142 O1   26   DMPC H8R  HAL2   0.090000        1.0079           0
   16143 O1   26   DMPC H8S  HAL2   0.090000        1.0079           0
   16144 O1   26   DMPC C29  CTL2  -0.180000       12.0107           0
   16145 O1   26   DMPC H9R  HAL2   0.090000        1.0079           0
   16146 O1   26   DMPC H9S  HAL2   0.090000        1.0079           0
   16147 O1   26   DMPC C210 CTL2  -0.180000       12.0107           0
   16148 O1   26   DMPC H10R HAL2   0.090000        1.0079           0
   16149 O1   26   DMPC H10S HAL2   0.090000        1.0079           0
   16150 O1   26   DMPC C211 CTL2  -0.180000       12.0107           0
   16151 O1   26   DMPC H11R HAL2   0.090000        1.0079           0
   16152 O1   26   DMPC H11S HAL2   0.090000        1.0079           0
   16153 O1   26   DMPC C212 CTL2  -0.180000       12.0107           0
   16154 O1   26   DMPC H12R HAL2   0.090000        1.0079           0
   16155 O1   26   DMPC H12S HAL2   0.090000        1.0079           0
   16156 O1   26   DMPC C213 CTL2  -0.180000       12.0107           0
   16157 O1   26   DMPC H13R HAL2   0.090000        1.0079           0
   16158 O1   26   DMPC H13S HAL2   0.090000        1.0079           0
   16159 O1   26   DMPC C214 CTL3  -0.270000       12.0107           0
   16160 O1   26   DMPC H14R HAL3   0.090000        1.0079           0
   16161 O1   26   DMPC H14S HAL3   0.090000        1.0079           0
   16162 O1   26   DMPC H14T HAL3   0.090000        1.0079           0
   16163 O1   26   DMPC C33  CTL2  -0.180000       12.0107           0
   16164 O1   26   DMPC H3X  HAL2   0.090000        1.0079           0
   16165 O1   26   DMPC H3Y  HAL2   0.090000        1.0079           0
   16166 O1   26   DMPC C34  CTL2  -0.180000       12.0107           0
   16167 O1   26   DMPC H4X  HAL2   0.090000        1.0079           0
   16168 O1   26   DMPC H4Y  HAL2   0.090000        1.0079           0
   16169 O1   26   DMPC C35  CTL2  -0.180000       12.0107           0
   16170 O1   26   DMPC H5X  HAL2   0.090000        1.0079           0
   16171 O1   26   DMPC H5Y  HAL2   0.090000        1.0079           0
   16172 O1   26   DMPC C36  CTL2  -0.180000       12.0107           0
   16173 O1   26   DMPC H6X  HAL2   0.090000        1.0079           0
   16174 O1   26   DMPC H6Y  HAL2   0.090000        1.0079           0
   16175 O1   26   DMPC C37  CTL2  -0.180000       12.0107           0
   16176 O1   26   DMPC H7X  HAL2   0.090000        1.0079           0
   16177 O1   26   DMPC H7Y  HAL2   0.090000        1.0079           0
   16178 O1   26   DMPC C38  CTL2  -0.180000       12.0107           0
   16179 O1   26   DMPC H8X  HAL2   0.090000        1.0079           0
   16180 O1   26   DMPC H8Y  HAL2   0.090000        1.0079           0
   16181 O1   26   DMPC C39  CTL2  -0.180000       12.0107           0
   16182 O1   26   DMPC H9X  HAL2   0.090000        1.0079           0
   16183 O1   26   DMPC H9Y  HAL2   0.090000        1.0079           0
   16184 O1   26   DMPC C310 CTL2  -0.180000       12.0107           0
   16185 O1   26   DMPC H10X HAL2   0.090000        1.0079           0
   16186 O1   26   DMPC H10Y HAL2   0.090000        1.0079           0
   16187 O1   26   DMPC C311 CTL2  -0.180000       12.0107           0
   16188 O1   26   DMPC H11X HAL2   0.090000        1.0079           0
   16189 O1   26   DMPC H11Y HAL2   0.090000        1.0079           0
   16190 O1   26   DMPC C312 CTL2  -0.180000       12.0107           0
   16191 O1   26   DMPC H12X HAL2   0.090000        1.0079           0
   16192 O1   26   DMPC H12Y HAL2   0.090000        1.0079           0
   16193 O1   26   DMPC C313 CTL2  -0.180000       12.0107           0
   16194 O1   26   DMPC H13X HAL2   0.090000        1.0079           0
   16195 O1   26   DMPC H13Y HAL2   0.090000        1.0079           0
   16196 O1   26   DMPC C314 CTL3  -0.270000       12.0107           0
   16197 O1   26   DMPC H14X HAL3   0.090000        1.0079           0
   16198 O1   26   DMPC H14Y HAL3   0.090000        1.0079           0
   16199 O1   26   DMPC H14Z HAL3   0.090000        1.0079           0
   16200 O1   27   DMPC N    NTL   -0.600000       14.0067           0
   16201 O1   27   DMPC C13  CTL5  -0.350000       12.0107           0
   16202 O1   27   DMPC H13A HL     0.250000        1.0079           0
   16203 O1   27   DMPC H13B HL     0.250000        1.0079           0
   16204 O1   27   DMPC H13C HL     0.250000        1.0079           0
   16205 O1   27   DMPC C14  CTL5  -0.350000       12.0107           0
   16206 O1   27   DMPC H14A HL     0.250000        1.0079           0
   16207 O1   27   DMPC H14B HL     0.250000        1.0079           0
   16208 O1   27   DMPC H14C HL     0.250000        1.0079           0
   16209 O1   27   DMPC C15  CTL5  -0.350000       12.0107           0
   16210 O1   27   DMPC H15A HL     0.250000        1.0079           0
   16211 O1   27   DMPC H15B HL     0.250000        1.0079           0
   16212 O1   27   DMPC H15C HL     0.250000        1.0079           0
   16213 O1   27   DMPC C12  CTL2  -0.100000       12.0107           0
   16214 O1   27   DMPC H12A HL     0.250000        1.0079           0
   16215 O1   27   DMPC H12B HL     0.250000        1.0079           0
   16216 O1   27   DMPC C11  CTL2  -0.080000       12.0107           0
   16217 O1   27   DMPC H11A HAL2   0.090000        1.0079           0
   16218 O1   27   DMPC H11B HAL2   0.090000        1.0079           0
   16219 O1   27   DMPC P    PL     1.500000       30.9738           0
   16220 O1   27   DMPC O13  O2L   -0.780000       15.9994           0
   16221 O1   27   DMPC O14  O2L   -0.780000       15.9994           0
   16222 O1   27   DMPC O11  OSLP  -0.570000       15.9994           0
   16223 O1   27   DMPC O12  OSLP  -0.570000       15.9994           0
   16224 O1   27   DMPC C1   CTL2  -0.080000       12.0107           0
   16225 O1   27   DMPC HA   HAL2   0.090000        1.0079           0
   16226 O1   27   DMPC HB   HAL2   0.090000        1.0079           0
   16227 O1   27   DMPC C2   CTL1   0.170000       12.0107           0
   16228 O1   27   DMPC HS   HAL1   0.090000        1.0079           0
   16229 O1   27   DMPC O21  OSL   -0.490000       15.9994           0
   16230 O1   27   DMPC C21  CL     0.900000       12.0107           0
   16231 O1   27   DMPC O22  OBL   -0.630000       15.9994           0
   16232 O1   27   DMPC C22  CTL2  -0.220000       12.0107           0
   16233 O1   27   DMPC H2R  HAL2   0.090000        1.0079           0
   16234 O1   27   DMPC H2S  HAL2   0.090000        1.0079           0
   16235 O1   27   DMPC C3   CTL2   0.080000       12.0107           0
   16236 O1   27   DMPC HX   HAL2   0.090000        1.0079           0
   16237 O1   27   DMPC HY   HAL2   0.090000        1.0079           0
   16238 O1   27   DMPC O31  OSL   -0.490000       15.9994           0
   16239 O1   27   DMPC C31  CL     0.900000       12.0107           0
   16240 O1   27   DMPC O32  OBL   -0.630000       15.9994           0
   16241 O1   27   DMPC C32  CTL2  -0.220000       12.0107           0
   16242 O1   27   DMPC H2X  HAL2   0.090000        1.0079           0
   16243 O1   27   DMPC H2Y  HAL2   0.090000        1.0079           0
   16244 O1   27   DMPC C23  CTL2  -0.180000       12.0107           0
   16245 O1   27   DMPC H3R  HAL2   0.090000        1.0079           0
   16246 O1   27   DMPC H3S  HAL2   0.090000        1.0079           0
   16247 O1   27   DMPC C24  CTL2  -0.180000       12.0107           0
   16248 O1   27   DMPC H4R  HAL2   0.090000        1.0079           0
   16249 O1   27   DMPC H4S  HAL2   0.090000        1.0079           0
   16250 O1   27   DMPC C25  CTL2  -0.180000       12.0107           0
   16251 O1   27   DMPC H5R  HAL2   0.090000        1.0079           0
   16252 O1   27   DMPC H5S  HAL2   0.090000        1.0079           0
   16253 O1   27   DMPC C26  CTL2  -0.180000       12.0107           0
   16254 O1   27   DMPC H6R  HAL2   0.090000        1.0079           0
   16255 O1   27   DMPC H6S  HAL2   0.090000        1.0079           0
   16256 O1   27   DMPC C27  CTL2  -0.180000       12.0107           0
   16257 O1   27   DMPC H7R  HAL2   0.090000        1.0079           0
   16258 O1   27   DMPC H7S  HAL2   0.090000        1.0079           0
   16259 O1   27   DMPC C28  CTL2  -0.180000       12.0107           0
   16260 O1   27   DMPC H8R  HAL2   0.090000        1.0079           0
   16261 O1   27   DMPC H8S  HAL2   0.090000        1.0079           0
   16262 O1   27   DMPC C29  CTL2  -0.180000       12.0107           0
   16263 O1   27   DMPC H9R  HAL2   0.090000        1.0079           0
   16264 O1   27   DMPC H9S  HAL2   0.090000        1.0079           0
   16265 O1   27   DMPC C210 CTL2  -0.180000       12.0107           0
   16266 O1   27   DMPC H10R HAL2   0.090000        1.0079           0
   16267 O1   27   DMPC H10S HAL2   0.090000        1.0079           0
   16268 O1   27   DMPC C211 CTL2  -0.180000       12.0107           0
   16269 O1   27   DMPC H11R HAL2   0.090000        1.0079           0
   16270 O1   27   DMPC H11S HAL2   0.090000        1.0079           0
   16271 O1   27   DMPC C212 CTL2  -0.180000       12.0107           0
   16272 O1   27   DMPC H12R HAL2   0.090000        1.0079           0
   16273 O1   27   DMPC H12S HAL2   0.090000        1.0079           0
   16274 O1   27   DMPC C213 CTL2  -0.180000       12.0107           0
   16275 O1   27   DMPC H13R HAL2   0.090000        1.0079           0
   16276 O1   27   DMPC H13S HAL2   0.090000        1.0079           0
   16277 O1   27   DMPC C214 CTL3  -0.270000       12.0107           0
   16278 O1   27   DMPC H14R HAL3   0.090000        1.0079           0
   16279 O1   27   DMPC H14S HAL3   0.090000        1.0079           0
   16280 O1   27   DMPC H14T HAL3   0.090000        1.0079           0
   16281 O1   27   DMPC C33  CTL2  -0.180000       12.0107           0
   16282 O1   27   DMPC H3X  HAL2   0.090000        1.0079           0
   16283 O1   27   DMPC H3Y  HAL2   0.090000        1.0079           0
   16284 O1   27   DMPC C34  CTL2  -0.180000       12.0107           0
   16285 O1   27   DMPC H4X  HAL2   0.090000        1.0079           0
   16286 O1   27   DMPC H4Y  HAL2   0.090000        1.0079           0
   16287 O1   27   DMPC C35  CTL2  -0.180000       12.0107           0
   16288 O1   27   DMPC H5X  HAL2   0.090000        1.0079           0
   16289 O1   27   DMPC H5Y  HAL2   0.090000        1.0079           0
   16290 O1   27   DMPC C36  CTL2  -0.180000       12.0107           0
   16291 O1   27   DMPC H6X  HAL2   0.090000        1.0079           0
   16292 O1   27   DMPC H6Y  HAL2   0.090000        1.0079           0
   16293 O1   27   DMPC C37  CTL2  -0.180000       12.0107           0
   16294 O1   27   DMPC H7X  HAL2   0.090000        1.0079           0
   16295 O1   27   DMPC H7Y  HAL2   0.090000        1.0079           0
   16296 O1   27   DMPC C38  CTL2  -0.180000       12.0107           0
   16297 O1   27   DMPC H8X  HAL2   0.090000        1.0079           0
   16298 O1   27   DMPC H8Y  HAL2   0.090000        1.0079           0
   16299 O1   27   DMPC C39  CTL2  -0.180000       12.0107           0
   16300 O1   27   DMPC H9X  HAL2   0.090000        1.0079           0
   16301 O1   27   DMPC H9Y  HAL2   0.090000        1.0079           0
   16302 O1   27   DMPC C310 CTL2  -0.180000       12.0107           0
   16303 O1   27   DMPC H10X HAL2   0.090000        1.0079           0
   16304 O1   27   DMPC H10Y HAL2   0.090000        1.0079           0
   16305 O1   27   DMPC C311 CTL2  -0.180000       12.0107           0
   16306 O1   27   DMPC H11X HAL2   0.090000        1.0079           0
   16307 O1   27   DMPC H11Y HAL2   0.090000        1.0079           0
   16308 O1   27   DMPC C312 CTL2  -0.180000       12.0107           0
   16309 O1   27   DMPC H12X HAL2   0.090000        1.0079           0
   16310 O1   27   DMPC H12Y HAL2   0.090000        1.0079           0
   16311 O1   27   DMPC C313 CTL2  -0.180000       12.0107           0
   16312 O1   27   DMPC H13X HAL2   0.090000        1.0079           0
   16313 O1   27   DMPC H13Y HAL2   0.090000        1.0079           0
   16314 O1   27   DMPC C314 CTL3  -0.270000       12.0107           0
   16315 O1   27   DMPC H14X HAL3   0.090000        1.0079           0
   16316 O1   27   DMPC H14Y HAL3   0.090000        1.0079           0
   16317 O1   27   DMPC H14Z HAL3   0.090000        1.0079           0
   16318 O1   28   DMPC N    NTL   -0.600000       14.0067           0
   16319 O1   28   DMPC C13  CTL5  -0.350000       12.0107           0
   16320 O1   28   DMPC H13A HL     0.250000        1.0079           0
   16321 O1   28   DMPC H13B HL     0.250000        1.0079           0
   16322 O1   28   DMPC H13C HL     0.250000        1.0079           0
   16323 O1   28   DMPC C14  CTL5  -0.350000       12.0107           0
   16324 O1   28   DMPC H14A HL     0.250000        1.0079           0
   16325 O1   28   DMPC H14B HL     0.250000        1.0079           0
   16326 O1   28   DMPC H14C HL     0.250000        1.0079           0
   16327 O1   28   DMPC C15  CTL5  -0.350000       12.0107           0
   16328 O1   28   DMPC H15A HL     0.250000        1.0079           0
   16329 O1   28   DMPC H15B HL     0.250000        1.0079           0
   16330 O1   28   DMPC H15C HL     0.250000        1.0079           0
   16331 O1   28   DMPC C12  CTL2  -0.100000       12.0107           0
   16332 O1   28   DMPC H12A HL     0.250000        1.0079           0
   16333 O1   28   DMPC H12B HL     0.250000        1.0079           0
   16334 O1   28   DMPC C11  CTL2  -0.080000       12.0107           0
   16335 O1   28   DMPC H11A HAL2   0.090000        1.0079           0
   16336 O1   28   DMPC H11B HAL2   0.090000        1.0079           0
   16337 O1   28   DMPC P    PL     1.500000       30.9738           0
   16338 O1   28   DMPC O13  O2L   -0.780000       15.9994           0
   16339 O1   28   DMPC O14  O2L   -0.780000       15.9994           0
   16340 O1   28   DMPC O11  OSLP  -0.570000       15.9994           0
   16341 O1   28   DMPC O12  OSLP  -0.570000       15.9994           0
   16342 O1   28   DMPC C1   CTL2  -0.080000       12.0107           0
   16343 O1   28   DMPC HA   HAL2   0.090000        1.0079           0
   16344 O1   28   DMPC HB   HAL2   0.090000        1.0079           0
   16345 O1   28   DMPC C2   CTL1   0.170000       12.0107           0
   16346 O1   28   DMPC HS   HAL1   0.090000        1.0079           0
   16347 O1   28   DMPC O21  OSL   -0.490000       15.9994           0
   16348 O1   28   DMPC C21  CL     0.900000       12.0107           0
   16349 O1   28   DMPC O22  OBL   -0.630000       15.9994           0
   16350 O1   28   DMPC C22  CTL2  -0.220000       12.0107           0
   16351 O1   28   DMPC H2R  HAL2   0.090000        1.0079           0
   16352 O1   28   DMPC H2S  HAL2   0.090000        1.0079           0
   16353 O1   28   DMPC C3   CTL2   0.080000       12.0107           0
   16354 O1   28   DMPC HX   HAL2   0.090000        1.0079           0
   16355 O1   28   DMPC HY   HAL2   0.090000        1.0079           0
   16356 O1   28   DMPC O31  OSL   -0.490000       15.9994           0
   16357 O1   28   DMPC C31  CL     0.900000       12.0107           0
   16358 O1   28   DMPC O32  OBL   -0.630000       15.9994           0
   16359 O1   28   DMPC C32  CTL2  -0.220000       12.0107           0
   16360 O1   28   DMPC H2X  HAL2   0.090000        1.0079           0
   16361 O1   28   DMPC H2Y  HAL2   0.090000        1.0079           0
   16362 O1   28   DMPC C23  CTL2  -0.180000       12.0107           0
   16363 O1   28   DMPC H3R  HAL2   0.090000        1.0079           0
   16364 O1   28   DMPC H3S  HAL2   0.090000        1.0079           0
   16365 O1   28   DMPC C24  CTL2  -0.180000       12.0107           0
   16366 O1   28   DMPC H4R  HAL2   0.090000        1.0079           0
   16367 O1   28   DMPC H4S  HAL2   0.090000        1.0079           0
   16368 O1   28   DMPC C25  CTL2  -0.180000       12.0107           0
   16369 O1   28   DMPC H5R  HAL2   0.090000        1.0079           0
   16370 O1   28   DMPC H5S  HAL2   0.090000        1.0079           0
   16371 O1   28   DMPC C26  CTL2  -0.180000       12.0107           0
   16372 O1   28   DMPC H6R  HAL2   0.090000        1.0079           0
   16373 O1   28   DMPC H6S  HAL2   0.090000        1.0079           0
   16374 O1   28   DMPC C27  CTL2  -0.180000       12.0107           0
   16375 O1   28   DMPC H7R  HAL2   0.090000        1.0079           0
   16376 O1   28   DMPC H7S  HAL2   0.090000        1.0079           0
   16377 O1   28   DMPC C28  CTL2  -0.180000       12.0107           0
   16378 O1   28   DMPC H8R  HAL2   0.090000        1.0079           0
   16379 O1   28   DMPC H8S  HAL2   0.090000        1.0079           0
   16380 O1   28   DMPC C29  CTL2  -0.180000       12.0107           0
   16381 O1   28   DMPC H9R  HAL2   0.090000        1.0079           0
   16382 O1   28   DMPC H9S  HAL2   0.090000        1.0079           0
   16383 O1   28   DMPC C210 CTL2  -0.180000       12.0107           0
   16384 O1   28   DMPC H10R HAL2   0.090000        1.0079           0
   16385 O1   28   DMPC H10S HAL2   0.090000        1.0079           0
   16386 O1   28   DMPC C211 CTL2  -0.180000       12.0107           0
   16387 O1   28   DMPC H11R HAL2   0.090000        1.0079           0
   16388 O1   28   DMPC H11S HAL2   0.090000        1.0079           0
   16389 O1   28   DMPC C212 CTL2  -0.180000       12.0107           0
   16390 O1   28   DMPC H12R HAL2   0.090000        1.0079           0
   16391 O1   28   DMPC H12S HAL2   0.090000        1.0079           0
   16392 O1   28   DMPC C213 CTL2  -0.180000       12.0107           0
   16393 O1   28   DMPC H13R HAL2   0.090000        1.0079           0
   16394 O1   28   DMPC H13S HAL2   0.090000        1.0079           0
   16395 O1   28   DMPC C214 CTL3  -0.270000       12.0107           0
   16396 O1   28   DMPC H14R HAL3   0.090000        1.0079           0
   16397 O1   28   DMPC H14S HAL3   0.090000        1.0079           0
   16398 O1   28   DMPC H14T HAL3   0.090000        1.0079           0
   16399 O1   28   DMPC C33  CTL2  -0.180000       12.0107           0
   16400 O1   28   DMPC H3X  HAL2   0.090000        1.0079           0
   16401 O1   28   DMPC H3Y  HAL2   0.090000        1.0079           0
   16402 O1   28   DMPC C34  CTL2  -0.180000       12.0107           0
   16403 O1   28   DMPC H4X  HAL2   0.090000        1.0079           0
   16404 O1   28   DMPC H4Y  HAL2   0.090000        1.0079           0
   16405 O1   28   DMPC C35  CTL2  -0.180000       12.0107           0
   16406 O1   28   DMPC H5X  HAL2   0.090000        1.0079           0
   16407 O1   28   DMPC H5Y  HAL2   0.090000        1.0079           0
   16408 O1   28   DMPC C36  CTL2  -0.180000       12.0107           0
   16409 O1   28   DMPC H6X  HAL2   0.090000        1.0079           0
   16410 O1   28   DMPC H6Y  HAL2   0.090000        1.0079           0
   16411 O1   28   DMPC C37  CTL2  -0.180000       12.0107           0
   16412 O1   28   DMPC H7X  HAL2   0.090000        1.0079           0
   16413 O1   28   DMPC H7Y  HAL2   0.090000        1.0079           0
   16414 O1   28   DMPC C38  CTL2  -0.180000       12.0107           0
   16415 O1   28   DMPC H8X  HAL2   0.090000        1.0079           0
   16416 O1   28   DMPC H8Y  HAL2   0.090000        1.0079           0
   16417 O1   28   DMPC C39  CTL2  -0.180000       12.0107           0
   16418 O1   28   DMPC H9X  HAL2   0.090000        1.0079           0
   16419 O1   28   DMPC H9Y  HAL2   0.090000        1.0079           0
   16420 O1   28   DMPC C310 CTL2  -0.180000       12.0107           0
   16421 O1   28   DMPC H10X HAL2   0.090000        1.0079           0
   16422 O1   28   DMPC H10Y HAL2   0.090000        1.0079           0
   16423 O1   28   DMPC C311 CTL2  -0.180000       12.0107           0
   16424 O1   28   DMPC H11X HAL2   0.090000        1.0079           0
   16425 O1   28   DMPC H11Y HAL2   0.090000        1.0079           0
   16426 O1   28   DMPC C312 CTL2  -0.180000       12.0107           0
   16427 O1   28   DMPC H12X HAL2   0.090000        1.0079           0
   16428 O1   28   DMPC H12Y HAL2   0.090000        1.0079           0
   16429 O1   28   DMPC C313 CTL2  -0.180000       12.0107           0
   16430 O1   28   DMPC H13X HAL2   0.090000        1.0079           0
   16431 O1   28   DMPC H13Y HAL2   0.090000        1.0079           0
   16432 O1   28   DMPC C314 CTL3  -0.270000       12.0107           0
   16433 O1   28   DMPC H14X HAL3   0.090000        1.0079           0
   16434 O1   28   DMPC H14Y HAL3   0.090000        1.0079           0
   16435 O1   28   DMPC H14Z HAL3   0.090000        1.0079           0
   16436 O1   29   DMPC N    NTL   -0.600000       14.0067           0
   16437 O1   29   DMPC C13  CTL5  -0.350000       12.0107           0
   16438 O1   29   DMPC H13A HL     0.250000        1.0079           0
   16439 O1   29   DMPC H13B HL     0.250000        1.0079           0
   16440 O1   29   DMPC H13C HL     0.250000        1.0079           0
   16441 O1   29   DMPC C14  CTL5  -0.350000       12.0107           0
   16442 O1   29   DMPC H14A HL     0.250000        1.0079           0
   16443 O1   29   DMPC H14B HL     0.250000        1.0079           0
   16444 O1   29   DMPC H14C HL     0.250000        1.0079           0
   16445 O1   29   DMPC C15  CTL5  -0.350000       12.0107           0
   16446 O1   29   DMPC H15A HL     0.250000        1.0079           0
   16447 O1   29   DMPC H15B HL     0.250000        1.0079           0
   16448 O1   29   DMPC H15C HL     0.250000        1.0079           0
   16449 O1   29   DMPC C12  CTL2  -0.100000       12.0107           0
   16450 O1   29   DMPC H12A HL     0.250000        1.0079           0
   16451 O1   29   DMPC H12B HL     0.250000        1.0079           0
   16452 O1   29   DMPC C11  CTL2  -0.080000       12.0107           0
   16453 O1   29   DMPC H11A HAL2   0.090000        1.0079           0
   16454 O1   29   DMPC H11B HAL2   0.090000        1.0079           0
   16455 O1   29   DMPC P    PL     1.500000       30.9738           0
   16456 O1   29   DMPC O13  O2L   -0.780000       15.9994           0
   16457 O1   29   DMPC O14  O2L   -0.780000       15.9994           0
   16458 O1   29   DMPC O11  OSLP  -0.570000       15.9994           0
   16459 O1   29   DMPC O12  OSLP  -0.570000       15.9994           0
   16460 O1   29   DMPC C1   CTL2  -0.080000       12.0107           0
   16461 O1   29   DMPC HA   HAL2   0.090000        1.0079           0
   16462 O1   29   DMPC HB   HAL2   0.090000        1.0079           0
   16463 O1   29   DMPC C2   CTL1   0.170000       12.0107           0
   16464 O1   29   DMPC HS   HAL1   0.090000        1.0079           0
   16465 O1   29   DMPC O21  OSL   -0.490000       15.9994           0
   16466 O1   29   DMPC C21  CL     0.900000       12.0107           0
   16467 O1   29   DMPC O22  OBL   -0.630000       15.9994           0
   16468 O1   29   DMPC C22  CTL2  -0.220000       12.0107           0
   16469 O1   29   DMPC H2R  HAL2   0.090000        1.0079           0
   16470 O1   29   DMPC H2S  HAL2   0.090000        1.0079           0
   16471 O1   29   DMPC C3   CTL2   0.080000       12.0107           0
   16472 O1   29   DMPC HX   HAL2   0.090000        1.0079           0
   16473 O1   29   DMPC HY   HAL2   0.090000        1.0079           0
   16474 O1   29   DMPC O31  OSL   -0.490000       15.9994           0
   16475 O1   29   DMPC C31  CL     0.900000       12.0107           0
   16476 O1   29   DMPC O32  OBL   -0.630000       15.9994           0
   16477 O1   29   DMPC C32  CTL2  -0.220000       12.0107           0
   16478 O1   29   DMPC H2X  HAL2   0.090000        1.0079           0
   16479 O1   29   DMPC H2Y  HAL2   0.090000        1.0079           0
   16480 O1   29   DMPC C23  CTL2  -0.180000       12.0107           0
   16481 O1   29   DMPC H3R  HAL2   0.090000        1.0079           0
   16482 O1   29   DMPC H3S  HAL2   0.090000        1.0079           0
   16483 O1   29   DMPC C24  CTL2  -0.180000       12.0107           0
   16484 O1   29   DMPC H4R  HAL2   0.090000        1.0079           0
   16485 O1   29   DMPC H4S  HAL2   0.090000        1.0079           0
   16486 O1   29   DMPC C25  CTL2  -0.180000       12.0107           0
   16487 O1   29   DMPC H5R  HAL2   0.090000        1.0079           0
   16488 O1   29   DMPC H5S  HAL2   0.090000        1.0079           0
   16489 O1   29   DMPC C26  CTL2  -0.180000       12.0107           0
   16490 O1   29   DMPC H6R  HAL2   0.090000        1.0079           0
   16491 O1   29   DMPC H6S  HAL2   0.090000        1.0079           0
   16492 O1   29   DMPC C27  CTL2  -0.180000       12.0107           0
   16493 O1   29   DMPC H7R  HAL2   0.090000        1.0079           0
   16494 O1   29   DMPC H7S  HAL2   0.090000        1.0079           0
   16495 O1   29   DMPC C28  CTL2  -0.180000       12.0107           0
   16496 O1   29   DMPC H8R  HAL2   0.090000        1.0079           0
   16497 O1   29   DMPC H8S  HAL2   0.090000        1.0079           0
   16498 O1   29   DMPC C29  CTL2  -0.180000       12.0107           0
   16499 O1   29   DMPC H9R  HAL2   0.090000        1.0079           0
   16500 O1   29   DMPC H9S  HAL2   0.090000        1.0079           0
   16501 O1   29   DMPC C210 CTL2  -0.180000       12.0107           0
   16502 O1   29   DMPC H10R HAL2   0.090000        1.0079           0
   16503 O1   29   DMPC H10S HAL2   0.090000        1.0079           0
   16504 O1   29   DMPC C211 CTL2  -0.180000       12.0107           0
   16505 O1   29   DMPC H11R HAL2   0.090000        1.0079           0
   16506 O1   29   DMPC H11S HAL2   0.090000        1.0079           0
   16507 O1   29   DMPC C212 CTL2  -0.180000       12.0107           0
   16508 O1   29   DMPC H12R HAL2   0.090000        1.0079           0
   16509 O1   29   DMPC H12S HAL2   0.090000        1.0079           0
   16510 O1   29   DMPC C213 CTL2  -0.180000       12.0107           0
   16511 O1   29   DMPC H13R HAL2   0.090000        1.0079           0
   16512 O1   29   DMPC H13S HAL2   0.090000        1.0079           0
   16513 O1   29   DMPC C214 CTL3  -0.270000       12.0107           0
   16514 O1   29   DMPC H14R HAL3   0.090000        1.0079           0
   16515 O1   29   DMPC H14S HAL3   0.090000        1.0079           0
   16516 O1   29   DMPC H14T HAL3   0.090000        1.0079           0
   16517 O1   29   DMPC C33  CTL2  -0.180000       12.0107           0
   16518 O1   29   DMPC H3X  HAL2   0.090000        1.0079           0
   16519 O1   29   DMPC H3Y  HAL2   0.090000        1.0079           0
   16520 O1   29   DMPC C34  CTL2  -0.180000       12.0107           0
   16521 O1   29   DMPC H4X  HAL2   0.090000        1.0079           0
   16522 O1   29   DMPC H4Y  HAL2   0.090000        1.0079           0
   16523 O1   29   DMPC C35  CTL2  -0.180000       12.0107           0
   16524 O1   29   DMPC H5X  HAL2   0.090000        1.0079           0
   16525 O1   29   DMPC H5Y  HAL2   0.090000        1.0079           0
   16526 O1   29   DMPC C36  CTL2  -0.180000       12.0107           0
   16527 O1   29   DMPC H6X  HAL2   0.090000        1.0079           0
   16528 O1   29   DMPC H6Y  HAL2   0.090000        1.0079           0
   16529 O1   29   DMPC C37  CTL2  -0.180000       12.0107           0
   16530 O1   29   DMPC H7X  HAL2   0.090000        1.0079           0
   16531 O1   29   DMPC H7Y  HAL2   0.090000        1.0079           0
   16532 O1   29   DMPC C38  CTL2  -0.180000       12.0107           0
   16533 O1   29   DMPC H8X  HAL2   0.090000        1.0079           0
   16534 O1   29   DMPC H8Y  HAL2   0.090000        1.0079           0
   16535 O1   29   DMPC C39  CTL2  -0.180000       12.0107           0
   16536 O1   29   DMPC H9X  HAL2   0.090000        1.0079           0
   16537 O1   29   DMPC H9Y  HAL2   0.090000        1.0079           0
   16538 O1   29   DMPC C310 CTL2  -0.180000       12.0107           0
   16539 O1   29   DMPC H10X HAL2   0.090000        1.0079           0
   16540 O1   29   DMPC H10Y HAL2   0.090000        1.0079           0
   16541 O1   29   DMPC C311 CTL2  -0.180000       12.0107           0
   16542 O1   29   DMPC H11X HAL2   0.090000        1.0079           0
   16543 O1   29   DMPC H11Y HAL2   0.090000        1.0079           0
   16544 O1   29   DMPC C312 CTL2  -0.180000       12.0107           0
   16545 O1   29   DMPC H12X HAL2   0.090000        1.0079           0
   16546 O1   29   DMPC H12Y HAL2   0.090000        1.0079           0
   16547 O1   29   DMPC C313 CTL2  -0.180000       12.0107           0
   16548 O1   29   DMPC H13X HAL2   0.090000        1.0079           0
   16549 O1   29   DMPC H13Y HAL2   0.090000        1.0079           0
   16550 O1   29   DMPC C314 CTL3  -0.270000       12.0107           0
   16551 O1   29   DMPC H14X HAL3   0.090000        1.0079           0
   16552 O1   29   DMPC H14Y HAL3   0.090000        1.0079           0
   16553 O1   29   DMPC H14Z HAL3   0.090000        1.0079           0
   16554 O1   30   DMPC N    NTL   -0.600000       14.0067           0
   16555 O1   30   DMPC C13  CTL5  -0.350000       12.0107           0
   16556 O1   30   DMPC H13A HL     0.250000        1.0079           0
   16557 O1   30   DMPC H13B HL     0.250000        1.0079           0
   16558 O1   30   DMPC H13C HL     0.250000        1.0079           0
   16559 O1   30   DMPC C14  CTL5  -0.350000       12.0107           0
   16560 O1   30   DMPC H14A HL     0.250000        1.0079           0
   16561 O1   30   DMPC H14B HL     0.250000        1.0079           0
   16562 O1   30   DMPC H14C HL     0.250000        1.0079           0
   16563 O1   30   DMPC C15  CTL5  -0.350000       12.0107           0
   16564 O1   30   DMPC H15A HL     0.250000        1.0079           0
   16565 O1   30   DMPC H15B HL     0.250000        1.0079           0
   16566 O1   30   DMPC H15C HL     0.250000        1.0079           0
   16567 O1   30   DMPC C12  CTL2  -0.100000       12.0107           0
   16568 O1   30   DMPC H12A HL     0.250000        1.0079           0
   16569 O1   30   DMPC H12B HL     0.250000        1.0079           0
   16570 O1   30   DMPC C11  CTL2  -0.080000       12.0107           0
   16571 O1   30   DMPC H11A HAL2   0.090000        1.0079           0
   16572 O1   30   DMPC H11B HAL2   0.090000        1.0079           0
   16573 O1   30   DMPC P    PL     1.500000       30.9738           0
   16574 O1   30   DMPC O13  O2L   -0.780000       15.9994           0
   16575 O1   30   DMPC O14  O2L   -0.780000       15.9994           0
   16576 O1   30   DMPC O11  OSLP  -0.570000       15.9994           0
   16577 O1   30   DMPC O12  OSLP  -0.570000       15.9994           0
   16578 O1   30   DMPC C1   CTL2  -0.080000       12.0107           0
   16579 O1   30   DMPC HA   HAL2   0.090000        1.0079           0
   16580 O1   30   DMPC HB   HAL2   0.090000        1.0079           0
   16581 O1   30   DMPC C2   CTL1   0.170000       12.0107           0
   16582 O1   30   DMPC HS   HAL1   0.090000        1.0079           0
   16583 O1   30   DMPC O21  OSL   -0.490000       15.9994           0
   16584 O1   30   DMPC C21  CL     0.900000       12.0107           0
   16585 O1   30   DMPC O22  OBL   -0.630000       15.9994           0
   16586 O1   30   DMPC C22  CTL2  -0.220000       12.0107           0
   16587 O1   30   DMPC H2R  HAL2   0.090000        1.0079           0
   16588 O1   30   DMPC H2S  HAL2   0.090000        1.0079           0
   16589 O1   30   DMPC C3   CTL2   0.080000       12.0107           0
   16590 O1   30   DMPC HX   HAL2   0.090000        1.0079           0
   16591 O1   30   DMPC HY   HAL2   0.090000        1.0079           0
   16592 O1   30   DMPC O31  OSL   -0.490000       15.9994           0
   16593 O1   30   DMPC C31  CL     0.900000       12.0107           0
   16594 O1   30   DMPC O32  OBL   -0.630000       15.9994           0
   16595 O1   30   DMPC C32  CTL2  -0.220000       12.0107           0
   16596 O1   30   DMPC H2X  HAL2   0.090000        1.0079           0
   16597 O1   30   DMPC H2Y  HAL2   0.090000        1.0079           0
   16598 O1   30   DMPC C23  CTL2  -0.180000       12.0107           0
   16599 O1   30   DMPC H3R  HAL2   0.090000        1.0079           0
   16600 O1   30   DMPC H3S  HAL2   0.090000        1.0079           0
   16601 O1   30   DMPC C24  CTL2  -0.180000       12.0107           0
   16602 O1   30   DMPC H4R  HAL2   0.090000        1.0079           0
   16603 O1   30   DMPC H4S  HAL2   0.090000        1.0079           0
   16604 O1   30   DMPC C25  CTL2  -0.180000       12.0107           0
   16605 O1   30   DMPC H5R  HAL2   0.090000        1.0079           0
   16606 O1   30   DMPC H5S  HAL2   0.090000        1.0079           0
   16607 O1   30   DMPC C26  CTL2  -0.180000       12.0107           0
   16608 O1   30   DMPC H6R  HAL2   0.090000        1.0079           0
   16609 O1   30   DMPC H6S  HAL2   0.090000        1.0079           0
   16610 O1   30   DMPC C27  CTL2  -0.180000       12.0107           0
   16611 O1   30   DMPC H7R  HAL2   0.090000        1.0079           0
   16612 O1   30   DMPC H7S  HAL2   0.090000        1.0079           0
   16613 O1   30   DMPC C28  CTL2  -0.180000       12.0107           0
   16614 O1   30   DMPC H8R  HAL2   0.090000        1.0079           0
   16615 O1   30   DMPC H8S  HAL2   0.090000        1.0079           0
   16616 O1   30   DMPC C29  CTL2  -0.180000       12.0107           0
   16617 O1   30   DMPC H9R  HAL2   0.090000        1.0079           0
   16618 O1   30   DMPC H9S  HAL2   0.090000        1.0079           0
   16619 O1   30   DMPC C210 CTL2  -0.180000       12.0107           0
   16620 O1   30   DMPC H10R HAL2   0.090000        1.0079           0
   16621 O1   30   DMPC H10S HAL2   0.090000        1.0079           0
   16622 O1   30   DMPC C211 CTL2  -0.180000       12.0107           0
   16623 O1   30   DMPC H11R HAL2   0.090000        1.0079           0
   16624 O1   30   DMPC H11S HAL2   0.090000        1.0079           0
   16625 O1   30   DMPC C212 CTL2  -0.180000       12.0107           0
   16626 O1   30   DMPC H12R HAL2   0.090000        1.0079           0
   16627 O1   30   DMPC H12S HAL2   0.090000        1.0079           0
   16628 O1   30   DMPC C213 CTL2  -0.180000       12.0107           0
   16629 O1   30   DMPC H13R HAL2   0.090000        1.0079           0
   16630 O1   30   DMPC H13S HAL2   0.090000        1.0079           0
   16631 O1   30   DMPC C214 CTL3  -0.270000       12.0107           0
   16632 O1   30   DMPC H14R HAL3   0.090000        1.0079           0
   16633 O1   30   DMPC H14S HAL3   0.090000        1.0079           0
   16634 O1   30   DMPC H14T HAL3   0.090000        1.0079           0
   16635 O1   30   DMPC C33  CTL2  -0.180000       12.0107           0
   16636 O1   30   DMPC H3X  HAL2   0.090000        1.0079           0
   16637 O1   30   DMPC H3Y  HAL2   0.090000        1.0079           0
   16638 O1   30   DMPC C34  CTL2  -0.180000       12.0107           0
   16639 O1   30   DMPC H4X  HAL2   0.090000        1.0079           0
   16640 O1   30   DMPC H4Y  HAL2   0.090000        1.0079           0
   16641 O1   30   DMPC C35  CTL2  -0.180000       12.0107           0
   16642 O1   30   DMPC H5X  HAL2   0.090000        1.0079           0
   16643 O1   30   DMPC H5Y  HAL2   0.090000        1.0079           0
   16644 O1   30   DMPC C36  CTL2  -0.180000       12.0107           0
   16645 O1   30   DMPC H6X  HAL2   0.090000        1.0079           0
   16646 O1   30   DMPC H6Y  HAL2   0.090000        1.0079           0
   16647 O1   30   DMPC C37  CTL2  -0.180000       12.0107           0
   16648 O1   30   DMPC H7X  HAL2   0.090000        1.0079           0
   16649 O1   30   DMPC H7Y  HAL2   0.090000        1.0079           0
   16650 O1   30   DMPC C38  CTL2  -0.180000       12.0107           0
   16651 O1   30   DMPC H8X  HAL2   0.090000        1.0079           0
   16652 O1   30   DMPC H8Y  HAL2   0.090000        1.0079           0
   16653 O1   30   DMPC C39  CTL2  -0.180000       12.0107           0
   16654 O1   30   DMPC H9X  HAL2   0.090000        1.0079           0
   16655 O1   30   DMPC H9Y  HAL2   0.090000        1.0079           0
   16656 O1   30   DMPC C310 CTL2  -0.180000       12.0107           0
   16657 O1   30   DMPC H10X HAL2   0.090000        1.0079           0
   16658 O1   30   DMPC H10Y HAL2   0.090000        1.0079           0
   16659 O1   30   DMPC C311 CTL2  -0.180000       12.0107           0
   16660 O1   30   DMPC H11X HAL2   0.090000        1.0079           0
   16661 O1   30   DMPC H11Y HAL2   0.090000        1.0079           0
   16662 O1   30   DMPC C312 CTL2  -0.180000       12.0107           0
   16663 O1   30   DMPC H12X HAL2   0.090000        1.0079           0
   16664 O1   30   DMPC H12Y HAL2   0.090000        1.0079           0
   16665 O1   30   DMPC C313 CTL2  -0.180000       12.0107           0
   16666 O1   30   DMPC H13X HAL2   0.090000        1.0079           0
   16667 O1   30   DMPC H13Y HAL2   0.090000        1.0079           0
   16668 O1   30   DMPC C314 CTL3  -0.270000       12.0107           0
   16669 O1   30   DMPC H14X HAL3   0.090000        1.0079           0
   16670 O1   30   DMPC H14Y HAL3   0.090000        1.0079           0
   16671 O1   30   DMPC H14Z HAL3   0.090000        1.0079           0
   16672 O1   31   DMPC N    NTL   -0.600000       14.0067           0
   16673 O1   31   DMPC C13  CTL5  -0.350000       12.0107           0
   16674 O1   31   DMPC H13A HL     0.250000        1.0079           0
   16675 O1   31   DMPC H13B HL     0.250000        1.0079           0
   16676 O1   31   DMPC H13C HL     0.250000        1.0079           0
   16677 O1   31   DMPC C14  CTL5  -0.350000       12.0107           0
   16678 O1   31   DMPC H14A HL     0.250000        1.0079           0
   16679 O1   31   DMPC H14B HL     0.250000        1.0079           0
   16680 O1   31   DMPC H14C HL     0.250000        1.0079           0
   16681 O1   31   DMPC C15  CTL5  -0.350000       12.0107           0
   16682 O1   31   DMPC H15A HL     0.250000        1.0079           0
   16683 O1   31   DMPC H15B HL     0.250000        1.0079           0
   16684 O1   31   DMPC H15C HL     0.250000        1.0079           0
   16685 O1   31   DMPC C12  CTL2  -0.100000       12.0107           0
   16686 O1   31   DMPC H12A HL     0.250000        1.0079           0
   16687 O1   31   DMPC H12B HL     0.250000        1.0079           0
   16688 O1   31   DMPC C11  CTL2  -0.080000       12.0107           0
   16689 O1   31   DMPC H11A HAL2   0.090000        1.0079           0
   16690 O1   31   DMPC H11B HAL2   0.090000        1.0079           0
   16691 O1   31   DMPC P    PL     1.500000       30.9738           0
   16692 O1   31   DMPC O13  O2L   -0.780000       15.9994           0
   16693 O1   31   DMPC O14  O2L   -0.780000       15.9994           0
   16694 O1   31   DMPC O11  OSLP  -0.570000       15.9994           0
   16695 O1   31   DMPC O12  OSLP  -0.570000       15.9994           0
   16696 O1   31   DMPC C1   CTL2  -0.080000       12.0107           0
   16697 O1   31   DMPC HA   HAL2   0.090000        1.0079           0
   16698 O1   31   DMPC HB   HAL2   0.090000        1.0079           0
   16699 O1   31   DMPC C2   CTL1   0.170000       12.0107           0
   16700 O1   31   DMPC HS   HAL1   0.090000        1.0079           0
   16701 O1   31   DMPC O21  OSL   -0.490000       15.9994           0
   16702 O1   31   DMPC C21  CL     0.900000       12.0107           0
   16703 O1   31   DMPC O22  OBL   -0.630000       15.9994           0
   16704 O1   31   DMPC C22  CTL2  -0.220000       12.0107           0
   16705 O1   31   DMPC H2R  HAL2   0.090000        1.0079           0
   16706 O1   31   DMPC H2S  HAL2   0.090000        1.0079           0
   16707 O1   31   DMPC C3   CTL2   0.080000       12.0107           0
   16708 O1   31   DMPC HX   HAL2   0.090000        1.0079           0
   16709 O1   31   DMPC HY   HAL2   0.090000        1.0079           0
   16710 O1   31   DMPC O31  OSL   -0.490000       15.9994           0
   16711 O1   31   DMPC C31  CL     0.900000       12.0107           0
   16712 O1   31   DMPC O32  OBL   -0.630000       15.9994           0
   16713 O1   31   DMPC C32  CTL2  -0.220000       12.0107           0
   16714 O1   31   DMPC H2X  HAL2   0.090000        1.0079           0
   16715 O1   31   DMPC H2Y  HAL2   0.090000        1.0079           0
   16716 O1   31   DMPC C23  CTL2  -0.180000       12.0107           0
   16717 O1   31   DMPC H3R  HAL2   0.090000        1.0079           0
   16718 O1   31   DMPC H3S  HAL2   0.090000        1.0079           0
   16719 O1   31   DMPC C24  CTL2  -0.180000       12.0107           0
   16720 O1   31   DMPC H4R  HAL2   0.090000        1.0079           0
   16721 O1   31   DMPC H4S  HAL2   0.090000        1.0079           0
   16722 O1   31   DMPC C25  CTL2  -0.180000       12.0107           0
   16723 O1   31   DMPC H5R  HAL2   0.090000        1.0079           0
   16724 O1   31   DMPC H5S  HAL2   0.090000        1.0079           0
   16725 O1   31   DMPC C26  CTL2  -0.180000       12.0107           0
   16726 O1   31   DMPC H6R  HAL2   0.090000        1.0079           0
   16727 O1   31   DMPC H6S  HAL2   0.090000        1.0079           0
   16728 O1   31   DMPC C27  CTL2  -0.180000       12.0107           0
   16729 O1   31   DMPC H7R  HAL2   0.090000        1.0079           0
   16730 O1   31   DMPC H7S  HAL2   0.090000        1.0079           0
   16731 O1   31   DMPC C28  CTL2  -0.180000       12.0107           0
   16732 O1   31   DMPC H8R  HAL2   0.090000        1.0079           0
   16733 O1   31   DMPC H8S  HAL2   0.090000        1.0079           0
   16734 O1   31   DMPC C29  CTL2  -0.180000       12.0107           0
   16735 O1   31   DMPC H9R  HAL2   0.090000        1.0079           0
   16736 O1   31   DMPC H9S  HAL2   0.090000        1.0079           0
   16737 O1   31   DMPC C210 CTL2  -0.180000       12.0107           0
   16738 O1   31   DMPC H10R HAL2   0.090000        1.0079           0
   16739 O1   31   DMPC H10S HAL2   0.090000        1.0079           0
   16740 O1   31   DMPC C211 CTL2  -0.180000       12.0107           0
   16741 O1   31   DMPC H11R HAL2   0.090000        1.0079           0
   16742 O1   31   DMPC H11S HAL2   0.090000        1.0079           0
   16743 O1   31   DMPC C212 CTL2  -0.180000       12.0107           0
   16744 O1   31   DMPC H12R HAL2   0.090000        1.0079           0
   16745 O1   31   DMPC H12S HAL2   0.090000        1.0079           0
   16746 O1   31   DMPC C213 CTL2  -0.180000       12.0107           0
   16747 O1   31   DMPC H13R HAL2   0.090000        1.0079           0
   16748 O1   31   DMPC H13S HAL2   0.090000        1.0079           0
   16749 O1   31   DMPC C214 CTL3  -0.270000       12.0107           0
   16750 O1   31   DMPC H14R HAL3   0.090000        1.0079           0
   16751 O1   31   DMPC H14S HAL3   0.090000        1.0079           0
   16752 O1   31   DMPC H14T HAL3   0.090000        1.0079           0
   16753 O1   31   DMPC C33  CTL2  -0.180000       12.0107           0
   16754 O1   31   DMPC H3X  HAL2   0.090000        1.0079           0
   16755 O1   31   DMPC H3Y  HAL2   0.090000        1.0079           0
   16756 O1   31   DMPC C34  CTL2  -0.180000       12.0107           0
   16757 O1   31   DMPC H4X  HAL2   0.090000        1.0079           0
   16758 O1   31   DMPC H4Y  HAL2   0.090000        1.0079           0
   16759 O1   31   DMPC C35  CTL2  -0.180000       12.0107           0
   16760 O1   31   DMPC H5X  HAL2   0.090000        1.0079           0
   16761 O1   31   DMPC H5Y  HAL2   0.090000        1.0079           0
   16762 O1   31   DMPC C36  CTL2  -0.180000       12.0107           0
   16763 O1   31   DMPC H6X  HAL2   0.090000        1.0079           0
   16764 O1   31   DMPC H6Y  HAL2   0.090000        1.0079           0
   16765 O1   31   DMPC C37  CTL2  -0.180000       12.0107           0
   16766 O1   31   DMPC H7X  HAL2   0.090000        1.0079           0
   16767 O1   31   DMPC H7Y  HAL2   0.090000        1.0079           0
   16768 O1   31   DMPC C38  CTL2  -0.180000       12.0107           0
   16769 O1   31   DMPC H8X  HAL2   0.090000        1.0079           0
   16770 O1   31   DMPC H8Y  HAL2   0.090000        1.0079           0
   16771 O1   31   DMPC C39  CTL2  -0.180000       12.0107           0
   16772 O1   31   DMPC H9X  HAL2   0.090000        1.0079           0
   16773 O1   31   DMPC H9Y  HAL2   0.090000        1.0079           0
   16774 O1   31   DMPC C310 CTL2  -0.180000       12.0107           0
   16775 O1   31   DMPC H10X HAL2   0.090000        1.0079           0
   16776 O1   31   DMPC H10Y HAL2   0.090000        1.0079           0
   16777 O1   31   DMPC C311 CTL2  -0.180000       12.0107           0
   16778 O1   31   DMPC H11X HAL2   0.090000        1.0079           0
   16779 O1   31   DMPC H11Y HAL2   0.090000        1.0079           0
   16780 O1   31   DMPC C312 CTL2  -0.180000       12.0107           0
   16781 O1   31   DMPC H12X HAL2   0.090000        1.0079           0
   16782 O1   31   DMPC H12Y HAL2   0.090000        1.0079           0
   16783 O1   31   DMPC C313 CTL2  -0.180000       12.0107           0
   16784 O1   31   DMPC H13X HAL2   0.090000        1.0079           0
   16785 O1   31   DMPC H13Y HAL2   0.090000        1.0079           0
   16786 O1   31   DMPC C314 CTL3  -0.270000       12.0107           0
   16787 O1   31   DMPC H14X HAL3   0.090000        1.0079           0
   16788 O1   31   DMPC H14Y HAL3   0.090000        1.0079           0
   16789 O1   31   DMPC H14Z HAL3   0.090000        1.0079           0
   16790 O1   32   DMPC N    NTL   -0.600000       14.0067           0
   16791 O1   32   DMPC C13  CTL5  -0.350000       12.0107           0
   16792 O1   32   DMPC H13A HL     0.250000        1.0079           0
   16793 O1   32   DMPC H13B HL     0.250000        1.0079           0
   16794 O1   32   DMPC H13C HL     0.250000        1.0079           0
   16795 O1   32   DMPC C14  CTL5  -0.350000       12.0107           0
   16796 O1   32   DMPC H14A HL     0.250000        1.0079           0
   16797 O1   32   DMPC H14B HL     0.250000        1.0079           0
   16798 O1   32   DMPC H14C HL     0.250000        1.0079           0
   16799 O1   32   DMPC C15  CTL5  -0.350000       12.0107           0
   16800 O1   32   DMPC H15A HL     0.250000        1.0079           0
   16801 O1   32   DMPC H15B HL     0.250000        1.0079           0
   16802 O1   32   DMPC H15C HL     0.250000        1.0079           0
   16803 O1   32   DMPC C12  CTL2  -0.100000       12.0107           0
   16804 O1   32   DMPC H12A HL     0.250000        1.0079           0
   16805 O1   32   DMPC H12B HL     0.250000        1.0079           0
   16806 O1   32   DMPC C11  CTL2  -0.080000       12.0107           0
   16807 O1   32   DMPC H11A HAL2   0.090000        1.0079           0
   16808 O1   32   DMPC H11B HAL2   0.090000        1.0079           0
   16809 O1   32   DMPC P    PL     1.500000       30.9738           0
   16810 O1   32   DMPC O13  O2L   -0.780000       15.9994           0
   16811 O1   32   DMPC O14  O2L   -0.780000       15.9994           0
   16812 O1   32   DMPC O11  OSLP  -0.570000       15.9994           0
   16813 O1   32   DMPC O12  OSLP  -0.570000       15.9994           0
   16814 O1   32   DMPC C1   CTL2  -0.080000       12.0107           0
   16815 O1   32   DMPC HA   HAL2   0.090000        1.0079           0
   16816 O1   32   DMPC HB   HAL2   0.090000        1.0079           0
   16817 O1   32   DMPC C2   CTL1   0.170000       12.0107           0
   16818 O1   32   DMPC HS   HAL1   0.090000        1.0079           0
   16819 O1   32   DMPC O21  OSL   -0.490000       15.9994           0
   16820 O1   32   DMPC C21  CL     0.900000       12.0107           0
   16821 O1   32   DMPC O22  OBL   -0.630000       15.9994           0
   16822 O1   32   DMPC C22  CTL2  -0.220000       12.0107           0
   16823 O1   32   DMPC H2R  HAL2   0.090000        1.0079           0
   16824 O1   32   DMPC H2S  HAL2   0.090000        1.0079           0
   16825 O1   32   DMPC C3   CTL2   0.080000       12.0107           0
   16826 O1   32   DMPC HX   HAL2   0.090000        1.0079           0
   16827 O1   32   DMPC HY   HAL2   0.090000        1.0079           0
   16828 O1   32   DMPC O31  OSL   -0.490000       15.9994           0
   16829 O1   32   DMPC C31  CL     0.900000       12.0107           0
   16830 O1   32   DMPC O32  OBL   -0.630000       15.9994           0
   16831 O1   32   DMPC C32  CTL2  -0.220000       12.0107           0
   16832 O1   32   DMPC H2X  HAL2   0.090000        1.0079           0
   16833 O1   32   DMPC H2Y  HAL2   0.090000        1.0079           0
   16834 O1   32   DMPC C23  CTL2  -0.180000       12.0107           0
   16835 O1   32   DMPC H3R  HAL2   0.090000        1.0079           0
   16836 O1   32   DMPC H3S  HAL2   0.090000        1.0079           0
   16837 O1   32   DMPC C24  CTL2  -0.180000       12.0107           0
   16838 O1   32   DMPC H4R  HAL2   0.090000        1.0079           0
   16839 O1   32   DMPC H4S  HAL2   0.090000        1.0079           0
   16840 O1   32   DMPC C25  CTL2  -0.180000       12.0107           0
   16841 O1   32   DMPC H5R  HAL2   0.090000        1.0079           0
   16842 O1   32   DMPC H5S  HAL2   0.090000        1.0079           0
   16843 O1   32   DMPC C26  CTL2  -0.180000       12.0107           0
   16844 O1   32   DMPC H6R  HAL2   0.090000        1.0079           0
   16845 O1   32   DMPC H6S  HAL2   0.090000        1.0079           0
   16846 O1   32   DMPC C27  CTL2  -0.180000       12.0107           0
   16847 O1   32   DMPC H7R  HAL2   0.090000        1.0079           0
   16848 O1   32   DMPC H7S  HAL2   0.090000        1.0079           0
   16849 O1   32   DMPC C28  CTL2  -0.180000       12.0107           0
   16850 O1   32   DMPC H8R  HAL2   0.090000        1.0079           0
   16851 O1   32   DMPC H8S  HAL2   0.090000        1.0079           0
   16852 O1   32   DMPC C29  CTL2  -0.180000       12.0107           0
   16853 O1   32   DMPC H9R  HAL2   0.090000        1.0079           0
   16854 O1   32   DMPC H9S  HAL2   0.090000        1.0079           0
   16855 O1   32   DMPC C210 CTL2  -0.180000       12.0107           0
   16856 O1   32   DMPC H10R HAL2   0.090000        1.0079           0
   16857 O1   32   DMPC H10S HAL2   0.090000        1.0079           0
   16858 O1   32   DMPC C211 CTL2  -0.180000       12.0107           0
   16859 O1   32   DMPC H11R HAL2   0.090000        1.0079           0
   16860 O1   32   DMPC H11S HAL2   0.090000        1.0079           0
   16861 O1   32   DMPC C212 CTL2  -0.180000       12.0107           0
   16862 O1   32   DMPC H12R HAL2   0.090000        1.0079           0
   16863 O1   32   DMPC H12S HAL2   0.090000        1.0079           0
   16864 O1   32   DMPC C213 CTL2  -0.180000       12.0107           0
   16865 O1   32   DMPC H13R HAL2   0.090000        1.0079           0
   16866 O1   32   DMPC H13S HAL2   0.090000        1.0079           0
   16867 O1   32   DMPC C214 CTL3  -0.270000       12.0107           0
   16868 O1   32   DMPC H14R HAL3   0.090000        1.0079           0
   16869 O1   32   DMPC H14S HAL3   0.090000        1.0079           0
   16870 O1   32   DMPC H14T HAL3   0.090000        1.0079           0
   16871 O1   32   DMPC C33  CTL2  -0.180000       12.0107           0
   16872 O1   32   DMPC H3X  HAL2   0.090000        1.0079           0
   16873 O1   32   DMPC H3Y  HAL2   0.090000        1.0079           0
   16874 O1   32   DMPC C34  CTL2  -0.180000       12.0107           0
   16875 O1   32   DMPC H4X  HAL2   0.090000        1.0079           0
   16876 O1   32   DMPC H4Y  HAL2   0.090000        1.0079           0
   16877 O1   32   DMPC C35  CTL2  -0.180000       12.0107           0
   16878 O1   32   DMPC H5X  HAL2   0.090000        1.0079           0
   16879 O1   32   DMPC H5Y  HAL2   0.090000        1.0079           0
   16880 O1   32   DMPC C36  CTL2  -0.180000       12.0107           0
   16881 O1   32   DMPC H6X  HAL2   0.090000        1.0079           0
   16882 O1   32   DMPC H6Y  HAL2   0.090000        1.0079           0
   16883 O1   32   DMPC C37  CTL2  -0.180000       12.0107           0
   16884 O1   32   DMPC H7X  HAL2   0.090000        1.0079           0
   16885 O1   32   DMPC H7Y  HAL2   0.090000        1.0079           0
   16886 O1   32   DMPC C38  CTL2  -0.180000       12.0107           0
   16887 O1   32   DMPC H8X  HAL2   0.090000        1.0079           0
   16888 O1   32   DMPC H8Y  HAL2   0.090000        1.0079           0
   16889 O1   32   DMPC C39  CTL2  -0.180000       12.0107           0
   16890 O1   32   DMPC H9X  HAL2   0.090000        1.0079           0
   16891 O1   32   DMPC H9Y  HAL2   0.090000        1.0079           0
   16892 O1   32   DMPC C310 CTL2  -0.180000       12.0107           0
   16893 O1   32   DMPC H10X HAL2   0.090000        1.0079           0
   16894 O1   32   DMPC H10Y HAL2   0.090000        1.0079           0
   16895 O1   32   DMPC C311 CTL2  -0.180000       12.0107           0
   16896 O1   32   DMPC H11X HAL2   0.090000        1.0079           0
   16897 O1   32   DMPC H11Y HAL2   0.090000        1.0079           0
   16898 O1   32   DMPC C312 CTL2  -0.180000       12.0107           0
   16899 O1   32   DMPC H12X HAL2   0.090000        1.0079           0
   16900 O1   32   DMPC H12Y HAL2   0.090000        1.0079           0
   16901 O1   32   DMPC C313 CTL2  -0.180000       12.0107           0
   16902 O1   32   DMPC H13X HAL2   0.090000        1.0079           0
   16903 O1   32   DMPC H13Y HAL2   0.090000        1.0079           0
   16904 O1   32   DMPC C314 CTL3  -0.270000       12.0107           0
   16905 O1   32   DMPC H14X HAL3   0.090000        1.0079           0
   16906 O1   32   DMPC H14Y HAL3   0.090000        1.0079           0
   16907 O1   32   DMPC H14Z HAL3   0.090000        1.0079           0
   16908 O1   33   DMPC N    NTL   -0.600000       14.0067           0
   16909 O1   33   DMPC C13  CTL5  -0.350000       12.0107           0
   16910 O1   33   DMPC H13A HL     0.250000        1.0079           0
   16911 O1   33   DMPC H13B HL     0.250000        1.0079           0
   16912 O1   33   DMPC H13C HL     0.250000        1.0079           0
   16913 O1   33   DMPC C14  CTL5  -0.350000       12.0107           0
   16914 O1   33   DMPC H14A HL     0.250000        1.0079           0
   16915 O1   33   DMPC H14B HL     0.250000        1.0079           0
   16916 O1   33   DMPC H14C HL     0.250000        1.0079           0
   16917 O1   33   DMPC C15  CTL5  -0.350000       12.0107           0
   16918 O1   33   DMPC H15A HL     0.250000        1.0079           0
   16919 O1   33   DMPC H15B HL     0.250000        1.0079           0
   16920 O1   33   DMPC H15C HL     0.250000        1.0079           0
   16921 O1   33   DMPC C12  CTL2  -0.100000       12.0107           0
   16922 O1   33   DMPC H12A HL     0.250000        1.0079           0
   16923 O1   33   DMPC H12B HL     0.250000        1.0079           0
   16924 O1   33   DMPC C11  CTL2  -0.080000       12.0107           0
   16925 O1   33   DMPC H11A HAL2   0.090000        1.0079           0
   16926 O1   33   DMPC H11B HAL2   0.090000        1.0079           0
   16927 O1   33   DMPC P    PL     1.500000       30.9738           0
   16928 O1   33   DMPC O13  O2L   -0.780000       15.9994           0
   16929 O1   33   DMPC O14  O2L   -0.780000       15.9994           0
   16930 O1   33   DMPC O11  OSLP  -0.570000       15.9994           0
   16931 O1   33   DMPC O12  OSLP  -0.570000       15.9994           0
   16932 O1   33   DMPC C1   CTL2  -0.080000       12.0107           0
   16933 O1   33   DMPC HA   HAL2   0.090000        1.0079           0
   16934 O1   33   DMPC HB   HAL2   0.090000        1.0079           0
   16935 O1   33   DMPC C2   CTL1   0.170000       12.0107           0
   16936 O1   33   DMPC HS   HAL1   0.090000        1.0079           0
   16937 O1   33   DMPC O21  OSL   -0.490000       15.9994           0
   16938 O1   33   DMPC C21  CL     0.900000       12.0107           0
   16939 O1   33   DMPC O22  OBL   -0.630000       15.9994           0
   16940 O1   33   DMPC C22  CTL2  -0.220000       12.0107           0
   16941 O1   33   DMPC H2R  HAL2   0.090000        1.0079           0
   16942 O1   33   DMPC H2S  HAL2   0.090000        1.0079           0
   16943 O1   33   DMPC C3   CTL2   0.080000       12.0107           0
   16944 O1   33   DMPC HX   HAL2   0.090000        1.0079           0
   16945 O1   33   DMPC HY   HAL2   0.090000        1.0079           0
   16946 O1   33   DMPC O31  OSL   -0.490000       15.9994           0
   16947 O1   33   DMPC C31  CL     0.900000       12.0107           0
   16948 O1   33   DMPC O32  OBL   -0.630000       15.9994           0
   16949 O1   33   DMPC C32  CTL2  -0.220000       12.0107           0
   16950 O1   33   DMPC H2X  HAL2   0.090000        1.0079           0
   16951 O1   33   DMPC H2Y  HAL2   0.090000        1.0079           0
   16952 O1   33   DMPC C23  CTL2  -0.180000       12.0107           0
   16953 O1   33   DMPC H3R  HAL2   0.090000        1.0079           0
   16954 O1   33   DMPC H3S  HAL2   0.090000        1.0079           0
   16955 O1   33   DMPC C24  CTL2  -0.180000       12.0107           0
   16956 O1   33   DMPC H4R  HAL2   0.090000        1.0079           0
   16957 O1   33   DMPC H4S  HAL2   0.090000        1.0079           0
   16958 O1   33   DMPC C25  CTL2  -0.180000       12.0107           0
   16959 O1   33   DMPC H5R  HAL2   0.090000        1.0079           0
   16960 O1   33   DMPC H5S  HAL2   0.090000        1.0079           0
   16961 O1   33   DMPC C26  CTL2  -0.180000       12.0107           0
   16962 O1   33   DMPC H6R  HAL2   0.090000        1.0079           0
   16963 O1   33   DMPC H6S  HAL2   0.090000        1.0079           0
   16964 O1   33   DMPC C27  CTL2  -0.180000       12.0107           0
   16965 O1   33   DMPC H7R  HAL2   0.090000        1.0079           0
   16966 O1   33   DMPC H7S  HAL2   0.090000        1.0079           0
   16967 O1   33   DMPC C28  CTL2  -0.180000       12.0107           0
   16968 O1   33   DMPC H8R  HAL2   0.090000        1.0079           0
   16969 O1   33   DMPC H8S  HAL2   0.090000        1.0079           0
   16970 O1   33   DMPC C29  CTL2  -0.180000       12.0107           0
   16971 O1   33   DMPC H9R  HAL2   0.090000        1.0079           0
   16972 O1   33   DMPC H9S  HAL2   0.090000        1.0079           0
   16973 O1   33   DMPC C210 CTL2  -0.180000       12.0107           0
   16974 O1   33   DMPC H10R HAL2   0.090000        1.0079           0
   16975 O1   33   DMPC H10S HAL2   0.090000        1.0079           0
   16976 O1   33   DMPC C211 CTL2  -0.180000       12.0107           0
   16977 O1   33   DMPC H11R HAL2   0.090000        1.0079           0
   16978 O1   33   DMPC H11S HAL2   0.090000        1.0079           0
   16979 O1   33   DMPC C212 CTL2  -0.180000       12.0107           0
   16980 O1   33   DMPC H12R HAL2   0.090000        1.0079           0
   16981 O1   33   DMPC H12S HAL2   0.090000        1.0079           0
   16982 O1   33   DMPC C213 CTL2  -0.180000       12.0107           0
   16983 O1   33   DMPC H13R HAL2   0.090000        1.0079           0
   16984 O1   33   DMPC H13S HAL2   0.090000        1.0079           0
   16985 O1   33   DMPC C214 CTL3  -0.270000       12.0107           0
   16986 O1   33   DMPC H14R HAL3   0.090000        1.0079           0
   16987 O1   33   DMPC H14S HAL3   0.090000        1.0079           0
   16988 O1   33   DMPC H14T HAL3   0.090000        1.0079           0
   16989 O1   33   DMPC C33  CTL2  -0.180000       12.0107           0
   16990 O1   33   DMPC H3X  HAL2   0.090000        1.0079           0
   16991 O1   33   DMPC H3Y  HAL2   0.090000        1.0079           0
   16992 O1   33   DMPC C34  CTL2  -0.180000       12.0107           0
   16993 O1   33   DMPC H4X  HAL2   0.090000        1.0079           0
   16994 O1   33   DMPC H4Y  HAL2   0.090000        1.0079           0
   16995 O1   33   DMPC C35  CTL2  -0.180000       12.0107           0
   16996 O1   33   DMPC H5X  HAL2   0.090000        1.0079           0
   16997 O1   33   DMPC H5Y  HAL2   0.090000        1.0079           0
   16998 O1   33   DMPC C36  CTL2  -0.180000       12.0107           0
   16999 O1   33   DMPC H6X  HAL2   0.090000        1.0079           0
   17000 O1   33   DMPC H6Y  HAL2   0.090000        1.0079           0
   17001 O1   33   DMPC C37  CTL2  -0.180000       12.0107           0
   17002 O1   33   DMPC H7X  HAL2   0.090000        1.0079           0
   17003 O1   33   DMPC H7Y  HAL2   0.090000        1.0079           0
   17004 O1   33   DMPC C38  CTL2  -0.180000       12.0107           0
   17005 O1   33   DMPC H8X  HAL2   0.090000        1.0079           0
   17006 O1   33   DMPC H8Y  HAL2   0.090000        1.0079           0
   17007 O1   33   DMPC C39  CTL2  -0.180000       12.0107           0
   17008 O1   33   DMPC H9X  HAL2   0.090000        1.0079           0
   17009 O1   33   DMPC H9Y  HAL2   0.090000        1.0079           0
   17010 O1   33   DMPC C310 CTL2  -0.180000       12.0107           0
   17011 O1   33   DMPC H10X HAL2   0.090000        1.0079           0
   17012 O1   33   DMPC H10Y HAL2   0.090000        1.0079           0
   17013 O1   33   DMPC C311 CTL2  -0.180000       12.0107           0
   17014 O1   33   DMPC H11X HAL2   0.090000        1.0079           0
   17015 O1   33   DMPC H11Y HAL2   0.090000        1.0079           0
   17016 O1   33   DMPC C312 CTL2  -0.180000       12.0107           0
   17017 O1   33   DMPC H12X HAL2   0.090000        1.0079           0
   17018 O1   33   DMPC H12Y HAL2   0.090000        1.0079           0
   17019 O1   33   DMPC C313 CTL2  -0.180000       12.0107           0
   17020 O1   33   DMPC H13X HAL2   0.090000        1.0079           0
   17021 O1   33   DMPC H13Y HAL2   0.090000        1.0079           0
   17022 O1   33   DMPC C314 CTL3  -0.270000       12.0107           0
   17023 O1   33   DMPC H14X HAL3   0.090000        1.0079           0
   17024 O1   33   DMPC H14Y HAL3   0.090000        1.0079           0
   17025 O1   33   DMPC H14Z HAL3   0.090000        1.0079           0
   17026 O1   34   DMPC N    NTL   -0.600000       14.0067           0
   17027 O1   34   DMPC C13  CTL5  -0.350000       12.0107           0
   17028 O1   34   DMPC H13A HL     0.250000        1.0079           0
   17029 O1   34   DMPC H13B HL     0.250000        1.0079           0
   17030 O1   34   DMPC H13C HL     0.250000        1.0079           0
   17031 O1   34   DMPC C14  CTL5  -0.350000       12.0107           0
   17032 O1   34   DMPC H14A HL     0.250000        1.0079           0
   17033 O1   34   DMPC H14B HL     0.250000        1.0079           0
   17034 O1   34   DMPC H14C HL     0.250000        1.0079           0
   17035 O1   34   DMPC C15  CTL5  -0.350000       12.0107           0
   17036 O1   34   DMPC H15A HL     0.250000        1.0079           0
   17037 O1   34   DMPC H15B HL     0.250000        1.0079           0
   17038 O1   34   DMPC H15C HL     0.250000        1.0079           0
   17039 O1   34   DMPC C12  CTL2  -0.100000       12.0107           0
   17040 O1   34   DMPC H12A HL     0.250000        1.0079           0
   17041 O1   34   DMPC H12B HL     0.250000        1.0079           0
   17042 O1   34   DMPC C11  CTL2  -0.080000       12.0107           0
   17043 O1   34   DMPC H11A HAL2   0.090000        1.0079           0
   17044 O1   34   DMPC H11B HAL2   0.090000        1.0079           0
   17045 O1   34   DMPC P    PL     1.500000       30.9738           0
   17046 O1   34   DMPC O13  O2L   -0.780000       15.9994           0
   17047 O1   34   DMPC O14  O2L   -0.780000       15.9994           0
   17048 O1   34   DMPC O11  OSLP  -0.570000       15.9994           0
   17049 O1   34   DMPC O12  OSLP  -0.570000       15.9994           0
   17050 O1   34   DMPC C1   CTL2  -0.080000       12.0107           0
   17051 O1   34   DMPC HA   HAL2   0.090000        1.0079           0
   17052 O1   34   DMPC HB   HAL2   0.090000        1.0079           0
   17053 O1   34   DMPC C2   CTL1   0.170000       12.0107           0
   17054 O1   34   DMPC HS   HAL1   0.090000        1.0079           0
   17055 O1   34   DMPC O21  OSL   -0.490000       15.9994           0
   17056 O1   34   DMPC C21  CL     0.900000       12.0107           0
   17057 O1   34   DMPC O22  OBL   -0.630000       15.9994           0
   17058 O1   34   DMPC C22  CTL2  -0.220000       12.0107           0
   17059 O1   34   DMPC H2R  HAL2   0.090000        1.0079           0
   17060 O1   34   DMPC H2S  HAL2   0.090000        1.0079           0
   17061 O1   34   DMPC C3   CTL2   0.080000       12.0107           0
   17062 O1   34   DMPC HX   HAL2   0.090000        1.0079           0
   17063 O1   34   DMPC HY   HAL2   0.090000        1.0079           0
   17064 O1   34   DMPC O31  OSL   -0.490000       15.9994           0
   17065 O1   34   DMPC C31  CL     0.900000       12.0107           0
   17066 O1   34   DMPC O32  OBL   -0.630000       15.9994           0
   17067 O1   34   DMPC C32  CTL2  -0.220000       12.0107           0
   17068 O1   34   DMPC H2X  HAL2   0.090000        1.0079           0
   17069 O1   34   DMPC H2Y  HAL2   0.090000        1.0079           0
   17070 O1   34   DMPC C23  CTL2  -0.180000       12.0107           0
   17071 O1   34   DMPC H3R  HAL2   0.090000        1.0079           0
   17072 O1   34   DMPC H3S  HAL2   0.090000        1.0079           0
   17073 O1   34   DMPC C24  CTL2  -0.180000       12.0107           0
   17074 O1   34   DMPC H4R  HAL2   0.090000        1.0079           0
   17075 O1   34   DMPC H4S  HAL2   0.090000        1.0079           0
   17076 O1   34   DMPC C25  CTL2  -0.180000       12.0107           0
   17077 O1   34   DMPC H5R  HAL2   0.090000        1.0079           0
   17078 O1   34   DMPC H5S  HAL2   0.090000        1.0079           0
   17079 O1   34   DMPC C26  CTL2  -0.180000       12.0107           0
   17080 O1   34   DMPC H6R  HAL2   0.090000        1.0079           0
   17081 O1   34   DMPC H6S  HAL2   0.090000        1.0079           0
   17082 O1   34   DMPC C27  CTL2  -0.180000       12.0107           0
   17083 O1   34   DMPC H7R  HAL2   0.090000        1.0079           0
   17084 O1   34   DMPC H7S  HAL2   0.090000        1.0079           0
   17085 O1   34   DMPC C28  CTL2  -0.180000       12.0107           0
   17086 O1   34   DMPC H8R  HAL2   0.090000        1.0079           0
   17087 O1   34   DMPC H8S  HAL2   0.090000        1.0079           0
   17088 O1   34   DMPC C29  CTL2  -0.180000       12.0107           0
   17089 O1   34   DMPC H9R  HAL2   0.090000        1.0079           0
   17090 O1   34   DMPC H9S  HAL2   0.090000        1.0079           0
   17091 O1   34   DMPC C210 CTL2  -0.180000       12.0107           0
   17092 O1   34   DMPC H10R HAL2   0.090000        1.0079           0
   17093 O1   34   DMPC H10S HAL2   0.090000        1.0079           0
   17094 O1   34   DMPC C211 CTL2  -0.180000       12.0107           0
   17095 O1   34   DMPC H11R HAL2   0.090000        1.0079           0
   17096 O1   34   DMPC H11S HAL2   0.090000        1.0079           0
   17097 O1   34   DMPC C212 CTL2  -0.180000       12.0107           0
   17098 O1   34   DMPC H12R HAL2   0.090000        1.0079           0
   17099 O1   34   DMPC H12S HAL2   0.090000        1.0079           0
   17100 O1   34   DMPC C213 CTL2  -0.180000       12.0107           0
   17101 O1   34   DMPC H13R HAL2   0.090000        1.0079           0
   17102 O1   34   DMPC H13S HAL2   0.090000        1.0079           0
   17103 O1   34   DMPC C214 CTL3  -0.270000       12.0107           0
   17104 O1   34   DMPC H14R HAL3   0.090000        1.0079           0
   17105 O1   34   DMPC H14S HAL3   0.090000        1.0079           0
   17106 O1   34   DMPC H14T HAL3   0.090000        1.0079           0
   17107 O1   34   DMPC C33  CTL2  -0.180000       12.0107           0
   17108 O1   34   DMPC H3X  HAL2   0.090000        1.0079           0
   17109 O1   34   DMPC H3Y  HAL2   0.090000        1.0079           0
   17110 O1   34   DMPC C34  CTL2  -0.180000       12.0107           0
   17111 O1   34   DMPC H4X  HAL2   0.090000        1.0079           0
   17112 O1   34   DMPC H4Y  HAL2   0.090000        1.0079           0
   17113 O1   34   DMPC C35  CTL2  -0.180000       12.0107           0
   17114 O1   34   DMPC H5X  HAL2   0.090000        1.0079           0
   17115 O1   34   DMPC H5Y  HAL2   0.090000        1.0079           0
   17116 O1   34   DMPC C36  CTL2  -0.180000       12.0107           0
   17117 O1   34   DMPC H6X  HAL2   0.090000        1.0079           0
   17118 O1   34   DMPC H6Y  HAL2   0.090000        1.0079           0
   17119 O1   34   DMPC C37  CTL2  -0.180000       12.0107           0
   17120 O1   34   DMPC H7X  HAL2   0.090000        1.0079           0
   17121 O1   34   DMPC H7Y  HAL2   0.090000        1.0079           0
   17122 O1   34   DMPC C38  CTL2  -0.180000       12.0107           0
   17123 O1   34   DMPC H8X  HAL2   0.090000        1.0079           0
   17124 O1   34   DMPC H8Y  HAL2   0.090000        1.0079           0
   17125 O1   34   DMPC C39  CTL2  -0.180000       12.0107           0
   17126 O1   34   DMPC H9X  HAL2   0.090000        1.0079           0
   17127 O1   34   DMPC H9Y  HAL2   0.090000        1.0079           0
   17128 O1   34   DMPC C310 CTL2  -0.180000       12.0107           0
   17129 O1   34   DMPC H10X HAL2   0.090000        1.0079           0
   17130 O1   34   DMPC H10Y HAL2   0.090000        1.0079           0
   17131 O1   34   DMPC C311 CTL2  -0.180000       12.0107           0
   17132 O1   34   DMPC H11X HAL2   0.090000        1.0079           0
   17133 O1   34   DMPC H11Y HAL2   0.090000        1.0079           0
   17134 O1   34   DMPC C312 CTL2  -0.180000       12.0107           0
   17135 O1   34   DMPC H12X HAL2   0.090000        1.0079           0
   17136 O1   34   DMPC H12Y HAL2   0.090000        1.0079           0
   17137 O1   34   DMPC C313 CTL2  -0.180000       12.0107           0
   17138 O1   34   DMPC H13X HAL2   0.090000        1.0079           0
   17139 O1   34   DMPC H13Y HAL2   0.090000        1.0079           0
   17140 O1   34   DMPC C314 CTL3  -0.270000       12.0107           0
   17141 O1   34   DMPC H14X HAL3   0.090000        1.0079           0
   17142 O1   34   DMPC H14Y HAL3   0.090000        1.0079           0
   17143 O1   34   DMPC H14Z HAL3   0.090000        1.0079           0
   17144 O1   35   DMPC N    NTL   -0.600000       14.0067           0
   17145 O1   35   DMPC C13  CTL5  -0.350000       12.0107           0
   17146 O1   35   DMPC H13A HL     0.250000        1.0079           0
   17147 O1   35   DMPC H13B HL     0.250000        1.0079           0
   17148 O1   35   DMPC H13C HL     0.250000        1.0079           0
   17149 O1   35   DMPC C14  CTL5  -0.350000       12.0107           0
   17150 O1   35   DMPC H14A HL     0.250000        1.0079           0
   17151 O1   35   DMPC H14B HL     0.250000        1.0079           0
   17152 O1   35   DMPC H14C HL     0.250000        1.0079           0
   17153 O1   35   DMPC C15  CTL5  -0.350000       12.0107           0
   17154 O1   35   DMPC H15A HL     0.250000        1.0079           0
   17155 O1   35   DMPC H15B HL     0.250000        1.0079           0
   17156 O1   35   DMPC H15C HL     0.250000        1.0079           0
   17157 O1   35   DMPC C12  CTL2  -0.100000       12.0107           0
   17158 O1   35   DMPC H12A HL     0.250000        1.0079           0
   17159 O1   35   DMPC H12B HL     0.250000        1.0079           0
   17160 O1   35   DMPC C11  CTL2  -0.080000       12.0107           0
   17161 O1   35   DMPC H11A HAL2   0.090000        1.0079           0
   17162 O1   35   DMPC H11B HAL2   0.090000        1.0079           0
   17163 O1   35   DMPC P    PL     1.500000       30.9738           0
   17164 O1   35   DMPC O13  O2L   -0.780000       15.9994           0
   17165 O1   35   DMPC O14  O2L   -0.780000       15.9994           0
   17166 O1   35   DMPC O11  OSLP  -0.570000       15.9994           0
   17167 O1   35   DMPC O12  OSLP  -0.570000       15.9994           0
   17168 O1   35   DMPC C1   CTL2  -0.080000       12.0107           0
   17169 O1   35   DMPC HA   HAL2   0.090000        1.0079           0
   17170 O1   35   DMPC HB   HAL2   0.090000        1.0079           0
   17171 O1   35   DMPC C2   CTL1   0.170000       12.0107           0
   17172 O1   35   DMPC HS   HAL1   0.090000        1.0079           0
   17173 O1   35   DMPC O21  OSL   -0.490000       15.9994           0
   17174 O1   35   DMPC C21  CL     0.900000       12.0107           0
   17175 O1   35   DMPC O22  OBL   -0.630000       15.9994           0
   17176 O1   35   DMPC C22  CTL2  -0.220000       12.0107           0
   17177 O1   35   DMPC H2R  HAL2   0.090000        1.0079           0
   17178 O1   35   DMPC H2S  HAL2   0.090000        1.0079           0
   17179 O1   35   DMPC C3   CTL2   0.080000       12.0107           0
   17180 O1   35   DMPC HX   HAL2   0.090000        1.0079           0
   17181 O1   35   DMPC HY   HAL2   0.090000        1.0079           0
   17182 O1   35   DMPC O31  OSL   -0.490000       15.9994           0
   17183 O1   35   DMPC C31  CL     0.900000       12.0107           0
   17184 O1   35   DMPC O32  OBL   -0.630000       15.9994           0
   17185 O1   35   DMPC C32  CTL2  -0.220000       12.0107           0
   17186 O1   35   DMPC H2X  HAL2   0.090000        1.0079           0
   17187 O1   35   DMPC H2Y  HAL2   0.090000        1.0079           0
   17188 O1   35   DMPC C23  CTL2  -0.180000       12.0107           0
   17189 O1   35   DMPC H3R  HAL2   0.090000        1.0079           0
   17190 O1   35   DMPC H3S  HAL2   0.090000        1.0079           0
   17191 O1   35   DMPC C24  CTL2  -0.180000       12.0107           0
   17192 O1   35   DMPC H4R  HAL2   0.090000        1.0079           0
   17193 O1   35   DMPC H4S  HAL2   0.090000        1.0079           0
   17194 O1   35   DMPC C25  CTL2  -0.180000       12.0107           0
   17195 O1   35   DMPC H5R  HAL2   0.090000        1.0079           0
   17196 O1   35   DMPC H5S  HAL2   0.090000        1.0079           0
   17197 O1   35   DMPC C26  CTL2  -0.180000       12.0107           0
   17198 O1   35   DMPC H6R  HAL2   0.090000        1.0079           0
   17199 O1   35   DMPC H6S  HAL2   0.090000        1.0079           0
   17200 O1   35   DMPC C27  CTL2  -0.180000       12.0107           0
   17201 O1   35   DMPC H7R  HAL2   0.090000        1.0079           0
   17202 O1   35   DMPC H7S  HAL2   0.090000        1.0079           0
   17203 O1   35   DMPC C28  CTL2  -0.180000       12.0107           0
   17204 O1   35   DMPC H8R  HAL2   0.090000        1.0079           0
   17205 O1   35   DMPC H8S  HAL2   0.090000        1.0079           0
   17206 O1   35   DMPC C29  CTL2  -0.180000       12.0107           0
   17207 O1   35   DMPC H9R  HAL2   0.090000        1.0079           0
   17208 O1   35   DMPC H9S  HAL2   0.090000        1.0079           0
   17209 O1   35   DMPC C210 CTL2  -0.180000       12.0107           0
   17210 O1   35   DMPC H10R HAL2   0.090000        1.0079           0
   17211 O1   35   DMPC H10S HAL2   0.090000        1.0079           0
   17212 O1   35   DMPC C211 CTL2  -0.180000       12.0107           0
   17213 O1   35   DMPC H11R HAL2   0.090000        1.0079           0
   17214 O1   35   DMPC H11S HAL2   0.090000        1.0079           0
   17215 O1   35   DMPC C212 CTL2  -0.180000       12.0107           0
   17216 O1   35   DMPC H12R HAL2   0.090000        1.0079           0
   17217 O1   35   DMPC H12S HAL2   0.090000        1.0079           0
   17218 O1   35   DMPC C213 CTL2  -0.180000       12.0107           0
   17219 O1   35   DMPC H13R HAL2   0.090000        1.0079           0
   17220 O1   35   DMPC H13S HAL2   0.090000        1.0079           0
   17221 O1   35   DMPC C214 CTL3  -0.270000       12.0107           0
   17222 O1   35   DMPC H14R HAL3   0.090000        1.0079           0
   17223 O1   35   DMPC H14S HAL3   0.090000        1.0079           0
   17224 O1   35   DMPC H14T HAL3   0.090000        1.0079           0
   17225 O1   35   DMPC C33  CTL2  -0.180000       12.0107           0
   17226 O1   35   DMPC H3X  HAL2   0.090000        1.0079           0
   17227 O1   35   DMPC H3Y  HAL2   0.090000        1.0079           0
   17228 O1   35   DMPC C34  CTL2  -0.180000       12.0107           0
   17229 O1   35   DMPC H4X  HAL2   0.090000        1.0079           0
   17230 O1   35   DMPC H4Y  HAL2   0.090000        1.0079           0
   17231 O1   35   DMPC C35  CTL2  -0.180000       12.0107           0
   17232 O1   35   DMPC H5X  HAL2   0.090000        1.0079           0
   17233 O1   35   DMPC H5Y  HAL2   0.090000        1.0079           0
   17234 O1   35   DMPC C36  CTL2  -0.180000       12.0107           0
   17235 O1   35   DMPC H6X  HAL2   0.090000        1.0079           0
   17236 O1   35   DMPC H6Y  HAL2   0.090000        1.0079           0
   17237 O1   35   DMPC C37  CTL2  -0.180000       12.0107           0
   17238 O1   35   DMPC H7X  HAL2   0.090000        1.0079           0
   17239 O1   35   DMPC H7Y  HAL2   0.090000        1.0079           0
   17240 O1   35   DMPC C38  CTL2  -0.180000       12.0107           0
   17241 O1   35   DMPC H8X  HAL2   0.090000        1.0079           0
   17242 O1   35   DMPC H8Y  HAL2   0.090000        1.0079           0
   17243 O1   35   DMPC C39  CTL2  -0.180000       12.0107           0
   17244 O1   35   DMPC H9X  HAL2   0.090000        1.0079           0
   17245 O1   35   DMPC H9Y  HAL2   0.090000        1.0079           0
   17246 O1   35   DMPC C310 CTL2  -0.180000       12.0107           0
   17247 O1   35   DMPC H10X HAL2   0.090000        1.0079           0
   17248 O1   35   DMPC H10Y HAL2   0.090000        1.0079           0
   17249 O1   35   DMPC C311 CTL2  -0.180000       12.0107           0
   17250 O1   35   DMPC H11X HAL2   0.090000        1.0079           0
   17251 O1   35   DMPC H11Y HAL2   0.090000        1.0079           0
   17252 O1   35   DMPC C312 CTL2  -0.180000       12.0107           0
   17253 O1   35   DMPC H12X HAL2   0.090000        1.0079           0
   17254 O1   35   DMPC H12Y HAL2   0.090000        1.0079           0
   17255 O1   35   DMPC C313 CTL2  -0.180000       12.0107           0
   17256 O1   35   DMPC H13X HAL2   0.090000        1.0079           0
   17257 O1   35   DMPC H13Y HAL2   0.090000        1.0079           0
   17258 O1   35   DMPC C314 CTL3  -0.270000       12.0107           0
   17259 O1   35   DMPC H14X HAL3   0.090000        1.0079           0
   17260 O1   35   DMPC H14Y HAL3   0.090000        1.0079           0
   17261 O1   35   DMPC H14Z HAL3   0.090000        1.0079           0
   17262 O1   36   DMPC N    NTL   -0.600000       14.0067           0
   17263 O1   36   DMPC C13  CTL5  -0.350000       12.0107           0
   17264 O1   36   DMPC H13A HL     0.250000        1.0079           0
   17265 O1   36   DMPC H13B HL     0.250000        1.0079           0
   17266 O1   36   DMPC H13C HL     0.250000        1.0079           0
   17267 O1   36   DMPC C14  CTL5  -0.350000       12.0107           0
   17268 O1   36   DMPC H14A HL     0.250000        1.0079           0
   17269 O1   36   DMPC H14B HL     0.250000        1.0079           0
   17270 O1   36   DMPC H14C HL     0.250000        1.0079           0
   17271 O1   36   DMPC C15  CTL5  -0.350000       12.0107           0
   17272 O1   36   DMPC H15A HL     0.250000        1.0079           0
   17273 O1   36   DMPC H15B HL     0.250000        1.0079           0
   17274 O1   36   DMPC H15C HL     0.250000        1.0079           0
   17275 O1   36   DMPC C12  CTL2  -0.100000       12.0107           0
   17276 O1   36   DMPC H12A HL     0.250000        1.0079           0
   17277 O1   36   DMPC H12B HL     0.250000        1.0079           0
   17278 O1   36   DMPC C11  CTL2  -0.080000       12.0107           0
   17279 O1   36   DMPC H11A HAL2   0.090000        1.0079           0
   17280 O1   36   DMPC H11B HAL2   0.090000        1.0079           0
   17281 O1   36   DMPC P    PL     1.500000       30.9738           0
   17282 O1   36   DMPC O13  O2L   -0.780000       15.9994           0
   17283 O1   36   DMPC O14  O2L   -0.780000       15.9994           0
   17284 O1   36   DMPC O11  OSLP  -0.570000       15.9994           0
   17285 O1   36   DMPC O12  OSLP  -0.570000       15.9994           0
   17286 O1   36   DMPC C1   CTL2  -0.080000       12.0107           0
   17287 O1   36   DMPC HA   HAL2   0.090000        1.0079           0
   17288 O1   36   DMPC HB   HAL2   0.090000        1.0079           0
   17289 O1   36   DMPC C2   CTL1   0.170000       12.0107           0
   17290 O1   36   DMPC HS   HAL1   0.090000        1.0079           0
   17291 O1   36   DMPC O21  OSL   -0.490000       15.9994           0
   17292 O1   36   DMPC C21  CL     0.900000       12.0107           0
   17293 O1   36   DMPC O22  OBL   -0.630000       15.9994           0
   17294 O1   36   DMPC C22  CTL2  -0.220000       12.0107           0
   17295 O1   36   DMPC H2R  HAL2   0.090000        1.0079           0
   17296 O1   36   DMPC H2S  HAL2   0.090000        1.0079           0
   17297 O1   36   DMPC C3   CTL2   0.080000       12.0107           0
   17298 O1   36   DMPC HX   HAL2   0.090000        1.0079           0
   17299 O1   36   DMPC HY   HAL2   0.090000        1.0079           0
   17300 O1   36   DMPC O31  OSL   -0.490000       15.9994           0
   17301 O1   36   DMPC C31  CL     0.900000       12.0107           0
   17302 O1   36   DMPC O32  OBL   -0.630000       15.9994           0
   17303 O1   36   DMPC C32  CTL2  -0.220000       12.0107           0
   17304 O1   36   DMPC H2X  HAL2   0.090000        1.0079           0
   17305 O1   36   DMPC H2Y  HAL2   0.090000        1.0079           0
   17306 O1   36   DMPC C23  CTL2  -0.180000       12.0107           0
   17307 O1   36   DMPC H3R  HAL2   0.090000        1.0079           0
   17308 O1   36   DMPC H3S  HAL2   0.090000        1.0079           0
   17309 O1   36   DMPC C24  CTL2  -0.180000       12.0107           0
   17310 O1   36   DMPC H4R  HAL2   0.090000        1.0079           0
   17311 O1   36   DMPC H4S  HAL2   0.090000        1.0079           0
   17312 O1   36   DMPC C25  CTL2  -0.180000       12.0107           0
   17313 O1   36   DMPC H5R  HAL2   0.090000        1.0079           0
   17314 O1   36   DMPC H5S  HAL2   0.090000        1.0079           0
   17315 O1   36   DMPC C26  CTL2  -0.180000       12.0107           0
   17316 O1   36   DMPC H6R  HAL2   0.090000        1.0079           0
   17317 O1   36   DMPC H6S  HAL2   0.090000        1.0079           0
   17318 O1   36   DMPC C27  CTL2  -0.180000       12.0107           0
   17319 O1   36   DMPC H7R  HAL2   0.090000        1.0079           0
   17320 O1   36   DMPC H7S  HAL2   0.090000        1.0079           0
   17321 O1   36   DMPC C28  CTL2  -0.180000       12.0107           0
   17322 O1   36   DMPC H8R  HAL2   0.090000        1.0079           0
   17323 O1   36   DMPC H8S  HAL2   0.090000        1.0079           0
   17324 O1   36   DMPC C29  CTL2  -0.180000       12.0107           0
   17325 O1   36   DMPC H9R  HAL2   0.090000        1.0079           0
   17326 O1   36   DMPC H9S  HAL2   0.090000        1.0079           0
   17327 O1   36   DMPC C210 CTL2  -0.180000       12.0107           0
   17328 O1   36   DMPC H10R HAL2   0.090000        1.0079           0
   17329 O1   36   DMPC H10S HAL2   0.090000        1.0079           0
   17330 O1   36   DMPC C211 CTL2  -0.180000       12.0107           0
   17331 O1   36   DMPC H11R HAL2   0.090000        1.0079           0
   17332 O1   36   DMPC H11S HAL2   0.090000        1.0079           0
   17333 O1   36   DMPC C212 CTL2  -0.180000       12.0107           0
   17334 O1   36   DMPC H12R HAL2   0.090000        1.0079           0
   17335 O1   36   DMPC H12S HAL2   0.090000        1.0079           0
   17336 O1   36   DMPC C213 CTL2  -0.180000       12.0107           0
   17337 O1   36   DMPC H13R HAL2   0.090000        1.0079           0
   17338 O1   36   DMPC H13S HAL2   0.090000        1.0079           0
   17339 O1   36   DMPC C214 CTL3  -0.270000       12.0107           0
   17340 O1   36   DMPC H14R HAL3   0.090000        1.0079           0
   17341 O1   36   DMPC H14S HAL3   0.090000        1.0079           0
   17342 O1   36   DMPC H14T HAL3   0.090000        1.0079           0
   17343 O1   36   DMPC C33  CTL2  -0.180000       12.0107           0
   17344 O1   36   DMPC H3X  HAL2   0.090000        1.0079           0
   17345 O1   36   DMPC H3Y  HAL2   0.090000        1.0079           0
   17346 O1   36   DMPC C34  CTL2  -0.180000       12.0107           0
   17347 O1   36   DMPC H4X  HAL2   0.090000        1.0079           0
   17348 O1   36   DMPC H4Y  HAL2   0.090000        1.0079           0
   17349 O1   36   DMPC C35  CTL2  -0.180000       12.0107           0
   17350 O1   36   DMPC H5X  HAL2   0.090000        1.0079           0
   17351 O1   36   DMPC H5Y  HAL2   0.090000        1.0079           0
   17352 O1   36   DMPC C36  CTL2  -0.180000       12.0107           0
   17353 O1   36   DMPC H6X  HAL2   0.090000        1.0079           0
   17354 O1   36   DMPC H6Y  HAL2   0.090000        1.0079           0
   17355 O1   36   DMPC C37  CTL2  -0.180000       12.0107           0
   17356 O1   36   DMPC H7X  HAL2   0.090000        1.0079           0
   17357 O1   36   DMPC H7Y  HAL2   0.090000        1.0079           0
   17358 O1   36   DMPC C38  CTL2  -0.180000       12.0107           0
   17359 O1   36   DMPC H8X  HAL2   0.090000        1.0079           0
   17360 O1   36   DMPC H8Y  HAL2   0.090000        1.0079           0
   17361 O1   36   DMPC C39  CTL2  -0.180000       12.0107           0
   17362 O1   36   DMPC H9X  HAL2   0.090000        1.0079           0
   17363 O1   36   DMPC H9Y  HAL2   0.090000        1.0079           0
   17364 O1   36   DMPC C310 CTL2  -0.180000       12.0107           0
   17365 O1   36   DMPC H10X HAL2   0.090000        1.0079           0
   17366 O1   36   DMPC H10Y HAL2   0.090000        1.0079           0
   17367 O1   36   DMPC C311 CTL2  -0.180000       12.0107           0
   17368 O1   36   DMPC H11X HAL2   0.090000        1.0079           0
   17369 O1   36   DMPC H11Y HAL2   0.090000        1.0079           0
   17370 O1   36   DMPC C312 CTL2  -0.180000       12.0107           0
   17371 O1   36   DMPC H12X HAL2   0.090000        1.0079           0
   17372 O1   36   DMPC H12Y HAL2   0.090000        1.0079           0
   17373 O1   36   DMPC C313 CTL2  -0.180000       12.0107           0
   17374 O1   36   DMPC H13X HAL2   0.090000        1.0079           0
   17375 O1   36   DMPC H13Y HAL2   0.090000        1.0079           0
   17376 O1   36   DMPC C314 CTL3  -0.270000       12.0107           0
   17377 O1   36   DMPC H14X HAL3   0.090000        1.0079           0
   17378 O1   36   DMPC H14Y HAL3   0.090000        1.0079           0
   17379 O1   36   DMPC H14Z HAL3   0.090000        1.0079           0
   17380 O1   37   DMPC N    NTL   -0.600000       14.0067           0
   17381 O1   37   DMPC C13  CTL5  -0.350000       12.0107           0
   17382 O1   37   DMPC H13A HL     0.250000        1.0079           0
   17383 O1   37   DMPC H13B HL     0.250000        1.0079           0
   17384 O1   37   DMPC H13C HL     0.250000        1.0079           0
   17385 O1   37   DMPC C14  CTL5  -0.350000       12.0107           0
   17386 O1   37   DMPC H14A HL     0.250000        1.0079           0
   17387 O1   37   DMPC H14B HL     0.250000        1.0079           0
   17388 O1   37   DMPC H14C HL     0.250000        1.0079           0
   17389 O1   37   DMPC C15  CTL5  -0.350000       12.0107           0
   17390 O1   37   DMPC H15A HL     0.250000        1.0079           0
   17391 O1   37   DMPC H15B HL     0.250000        1.0079           0
   17392 O1   37   DMPC H15C HL     0.250000        1.0079           0
   17393 O1   37   DMPC C12  CTL2  -0.100000       12.0107           0
   17394 O1   37   DMPC H12A HL     0.250000        1.0079           0
   17395 O1   37   DMPC H12B HL     0.250000        1.0079           0
   17396 O1   37   DMPC C11  CTL2  -0.080000       12.0107           0
   17397 O1   37   DMPC H11A HAL2   0.090000        1.0079           0
   17398 O1   37   DMPC H11B HAL2   0.090000        1.0079           0
   17399 O1   37   DMPC P    PL     1.500000       30.9738           0
   17400 O1   37   DMPC O13  O2L   -0.780000       15.9994           0
   17401 O1   37   DMPC O14  O2L   -0.780000       15.9994           0
   17402 O1   37   DMPC O11  OSLP  -0.570000       15.9994           0
   17403 O1   37   DMPC O12  OSLP  -0.570000       15.9994           0
   17404 O1   37   DMPC C1   CTL2  -0.080000       12.0107           0
   17405 O1   37   DMPC HA   HAL2   0.090000        1.0079           0
   17406 O1   37   DMPC HB   HAL2   0.090000        1.0079           0
   17407 O1   37   DMPC C2   CTL1   0.170000       12.0107           0
   17408 O1   37   DMPC HS   HAL1   0.090000        1.0079           0
   17409 O1   37   DMPC O21  OSL   -0.490000       15.9994           0
   17410 O1   37   DMPC C21  CL     0.900000       12.0107           0
   17411 O1   37   DMPC O22  OBL   -0.630000       15.9994           0
   17412 O1   37   DMPC C22  CTL2  -0.220000       12.0107           0
   17413 O1   37   DMPC H2R  HAL2   0.090000        1.0079           0
   17414 O1   37   DMPC H2S  HAL2   0.090000        1.0079           0
   17415 O1   37   DMPC C3   CTL2   0.080000       12.0107           0
   17416 O1   37   DMPC HX   HAL2   0.090000        1.0079           0
   17417 O1   37   DMPC HY   HAL2   0.090000        1.0079           0
   17418 O1   37   DMPC O31  OSL   -0.490000       15.9994           0
   17419 O1   37   DMPC C31  CL     0.900000       12.0107           0
   17420 O1   37   DMPC O32  OBL   -0.630000       15.9994           0
   17421 O1   37   DMPC C32  CTL2  -0.220000       12.0107           0
   17422 O1   37   DMPC H2X  HAL2   0.090000        1.0079           0
   17423 O1   37   DMPC H2Y  HAL2   0.090000        1.0079           0
   17424 O1   37   DMPC C23  CTL2  -0.180000       12.0107           0
   17425 O1   37   DMPC H3R  HAL2   0.090000        1.0079           0
   17426 O1   37   DMPC H3S  HAL2   0.090000        1.0079           0
   17427 O1   37   DMPC C24  CTL2  -0.180000       12.0107           0
   17428 O1   37   DMPC H4R  HAL2   0.090000        1.0079           0
   17429 O1   37   DMPC H4S  HAL2   0.090000        1.0079           0
   17430 O1   37   DMPC C25  CTL2  -0.180000       12.0107           0
   17431 O1   37   DMPC H5R  HAL2   0.090000        1.0079           0
   17432 O1   37   DMPC H5S  HAL2   0.090000        1.0079           0
   17433 O1   37   DMPC C26  CTL2  -0.180000       12.0107           0
   17434 O1   37   DMPC H6R  HAL2   0.090000        1.0079           0
   17435 O1   37   DMPC H6S  HAL2   0.090000        1.0079           0
   17436 O1   37   DMPC C27  CTL2  -0.180000       12.0107           0
   17437 O1   37   DMPC H7R  HAL2   0.090000        1.0079           0
   17438 O1   37   DMPC H7S  HAL2   0.090000        1.0079           0
   17439 O1   37   DMPC C28  CTL2  -0.180000       12.0107           0
   17440 O1   37   DMPC H8R  HAL2   0.090000        1.0079           0
   17441 O1   37   DMPC H8S  HAL2   0.090000        1.0079           0
   17442 O1   37   DMPC C29  CTL2  -0.180000       12.0107           0
   17443 O1   37   DMPC H9R  HAL2   0.090000        1.0079           0
   17444 O1   37   DMPC H9S  HAL2   0.090000        1.0079           0
   17445 O1   37   DMPC C210 CTL2  -0.180000       12.0107           0
   17446 O1   37   DMPC H10R HAL2   0.090000        1.0079           0
   17447 O1   37   DMPC H10S HAL2   0.090000        1.0079           0
   17448 O1   37   DMPC C211 CTL2  -0.180000       12.0107           0
   17449 O1   37   DMPC H11R HAL2   0.090000        1.0079           0
   17450 O1   37   DMPC H11S HAL2   0.090000        1.0079           0
   17451 O1   37   DMPC C212 CTL2  -0.180000       12.0107           0
   17452 O1   37   DMPC H12R HAL2   0.090000        1.0079           0
   17453 O1   37   DMPC H12S HAL2   0.090000        1.0079           0
   17454 O1   37   DMPC C213 CTL2  -0.180000       12.0107           0
   17455 O1   37   DMPC H13R HAL2   0.090000        1.0079           0
   17456 O1   37   DMPC H13S HAL2   0.090000        1.0079           0
   17457 O1   37   DMPC C214 CTL3  -0.270000       12.0107           0
   17458 O1   37   DMPC H14R HAL3   0.090000        1.0079           0
   17459 O1   37   DMPC H14S HAL3   0.090000        1.0079           0
   17460 O1   37   DMPC H14T HAL3   0.090000        1.0079           0
   17461 O1   37   DMPC C33  CTL2  -0.180000       12.0107           0
   17462 O1   37   DMPC H3X  HAL2   0.090000        1.0079           0
   17463 O1   37   DMPC H3Y  HAL2   0.090000        1.0079           0
   17464 O1   37   DMPC C34  CTL2  -0.180000       12.0107           0
   17465 O1   37   DMPC H4X  HAL2   0.090000        1.0079           0
   17466 O1   37   DMPC H4Y  HAL2   0.090000        1.0079           0
   17467 O1   37   DMPC C35  CTL2  -0.180000       12.0107           0
   17468 O1   37   DMPC H5X  HAL2   0.090000        1.0079           0
   17469 O1   37   DMPC H5Y  HAL2   0.090000        1.0079           0
   17470 O1   37   DMPC C36  CTL2  -0.180000       12.0107           0
   17471 O1   37   DMPC H6X  HAL2   0.090000        1.0079           0
   17472 O1   37   DMPC H6Y  HAL2   0.090000        1.0079           0
   17473 O1   37   DMPC C37  CTL2  -0.180000       12.0107           0
   17474 O1   37   DMPC H7X  HAL2   0.090000        1.0079           0
   17475 O1   37   DMPC H7Y  HAL2   0.090000        1.0079           0
   17476 O1   37   DMPC C38  CTL2  -0.180000       12.0107           0
   17477 O1   37   DMPC H8X  HAL2   0.090000        1.0079           0
   17478 O1   37   DMPC H8Y  HAL2   0.090000        1.0079           0
   17479 O1   37   DMPC C39  CTL2  -0.180000       12.0107           0
   17480 O1   37   DMPC H9X  HAL2   0.090000        1.0079           0
   17481 O1   37   DMPC H9Y  HAL2   0.090000        1.0079           0
   17482 O1   37   DMPC C310 CTL2  -0.180000       12.0107           0
   17483 O1   37   DMPC H10X HAL2   0.090000        1.0079           0
   17484 O1   37   DMPC H10Y HAL2   0.090000        1.0079           0
   17485 O1   37   DMPC C311 CTL2  -0.180000       12.0107           0
   17486 O1   37   DMPC H11X HAL2   0.090000        1.0079           0
   17487 O1   37   DMPC H11Y HAL2   0.090000        1.0079           0
   17488 O1   37   DMPC C312 CTL2  -0.180000       12.0107           0
   17489 O1   37   DMPC H12X HAL2   0.090000        1.0079           0
   17490 O1   37   DMPC H12Y HAL2   0.090000        1.0079           0
   17491 O1   37   DMPC C313 CTL2  -0.180000       12.0107           0
   17492 O1   37   DMPC H13X HAL2   0.090000        1.0079           0
   17493 O1   37   DMPC H13Y HAL2   0.090000        1.0079           0
   17494 O1   37   DMPC C314 CTL3  -0.270000       12.0107           0
   17495 O1   37   DMPC H14X HAL3   0.090000        1.0079           0
   17496 O1   37   DMPC H14Y HAL3   0.090000        1.0079           0
   17497 O1   37   DMPC H14Z HAL3   0.090000        1.0079           0
   17498 O1   38   DMPC N    NTL   -0.600000       14.0067           0
   17499 O1   38   DMPC C13  CTL5  -0.350000       12.0107           0
   17500 O1   38   DMPC H13A HL     0.250000        1.0079           0
   17501 O1   38   DMPC H13B HL     0.250000        1.0079           0
   17502 O1   38   DMPC H13C HL     0.250000        1.0079           0
   17503 O1   38   DMPC C14  CTL5  -0.350000       12.0107           0
   17504 O1   38   DMPC H14A HL     0.250000        1.0079           0
   17505 O1   38   DMPC H14B HL     0.250000        1.0079           0
   17506 O1   38   DMPC H14C HL     0.250000        1.0079           0
   17507 O1   38   DMPC C15  CTL5  -0.350000       12.0107           0
   17508 O1   38   DMPC H15A HL     0.250000        1.0079           0
   17509 O1   38   DMPC H15B HL     0.250000        1.0079           0
   17510 O1   38   DMPC H15C HL     0.250000        1.0079           0
   17511 O1   38   DMPC C12  CTL2  -0.100000       12.0107           0
   17512 O1   38   DMPC H12A HL     0.250000        1.0079           0
   17513 O1   38   DMPC H12B HL     0.250000        1.0079           0
   17514 O1   38   DMPC C11  CTL2  -0.080000       12.0107           0
   17515 O1   38   DMPC H11A HAL2   0.090000        1.0079           0
   17516 O1   38   DMPC H11B HAL2   0.090000        1.0079           0
   17517 O1   38   DMPC P    PL     1.500000       30.9738           0
   17518 O1   38   DMPC O13  O2L   -0.780000       15.9994           0
   17519 O1   38   DMPC O14  O2L   -0.780000       15.9994           0
   17520 O1   38   DMPC O11  OSLP  -0.570000       15.9994           0
   17521 O1   38   DMPC O12  OSLP  -0.570000       15.9994           0
   17522 O1   38   DMPC C1   CTL2  -0.080000       12.0107           0
   17523 O1   38   DMPC HA   HAL2   0.090000        1.0079           0
   17524 O1   38   DMPC HB   HAL2   0.090000        1.0079           0
   17525 O1   38   DMPC C2   CTL1   0.170000       12.0107           0
   17526 O1   38   DMPC HS   HAL1   0.090000        1.0079           0
   17527 O1   38   DMPC O21  OSL   -0.490000       15.9994           0
   17528 O1   38   DMPC C21  CL     0.900000       12.0107           0
   17529 O1   38   DMPC O22  OBL   -0.630000       15.9994           0
   17530 O1   38   DMPC C22  CTL2  -0.220000       12.0107           0
   17531 O1   38   DMPC H2R  HAL2   0.090000        1.0079           0
   17532 O1   38   DMPC H2S  HAL2   0.090000        1.0079           0
   17533 O1   38   DMPC C3   CTL2   0.080000       12.0107           0
   17534 O1   38   DMPC HX   HAL2   0.090000        1.0079           0
   17535 O1   38   DMPC HY   HAL2   0.090000        1.0079           0
   17536 O1   38   DMPC O31  OSL   -0.490000       15.9994           0
   17537 O1   38   DMPC C31  CL     0.900000       12.0107           0
   17538 O1   38   DMPC O32  OBL   -0.630000       15.9994           0
   17539 O1   38   DMPC C32  CTL2  -0.220000       12.0107           0
   17540 O1   38   DMPC H2X  HAL2   0.090000        1.0079           0
   17541 O1   38   DMPC H2Y  HAL2   0.090000        1.0079           0
   17542 O1   38   DMPC C23  CTL2  -0.180000       12.0107           0
   17543 O1   38   DMPC H3R  HAL2   0.090000        1.0079           0
   17544 O1   38   DMPC H3S  HAL2   0.090000        1.0079           0
   17545 O1   38   DMPC C24  CTL2  -0.180000       12.0107           0
   17546 O1   38   DMPC H4R  HAL2   0.090000        1.0079           0
   17547 O1   38   DMPC H4S  HAL2   0.090000        1.0079           0
   17548 O1   38   DMPC C25  CTL2  -0.180000       12.0107           0
   17549 O1   38   DMPC H5R  HAL2   0.090000        1.0079           0
   17550 O1   38   DMPC H5S  HAL2   0.090000        1.0079           0
   17551 O1   38   DMPC C26  CTL2  -0.180000       12.0107           0
   17552 O1   38   DMPC H6R  HAL2   0.090000        1.0079           0
   17553 O1   38   DMPC H6S  HAL2   0.090000        1.0079           0
   17554 O1   38   DMPC C27  CTL2  -0.180000       12.0107           0
   17555 O1   38   DMPC H7R  HAL2   0.090000        1.0079           0
   17556 O1   38   DMPC H7S  HAL2   0.090000        1.0079           0
   17557 O1   38   DMPC C28  CTL2  -0.180000       12.0107           0
   17558 O1   38   DMPC H8R  HAL2   0.090000        1.0079           0
   17559 O1   38   DMPC H8S  HAL2   0.090000        1.0079           0
   17560 O1   38   DMPC C29  CTL2  -0.180000       12.0107           0
   17561 O1   38   DMPC H9R  HAL2   0.090000        1.0079           0
   17562 O1   38   DMPC H9S  HAL2   0.090000        1.0079           0
   17563 O1   38   DMPC C210 CTL2  -0.180000       12.0107           0
   17564 O1   38   DMPC H10R HAL2   0.090000        1.0079           0
   17565 O1   38   DMPC H10S HAL2   0.090000        1.0079           0
   17566 O1   38   DMPC C211 CTL2  -0.180000       12.0107           0
   17567 O1   38   DMPC H11R HAL2   0.090000        1.0079           0
   17568 O1   38   DMPC H11S HAL2   0.090000        1.0079           0
   17569 O1   38   DMPC C212 CTL2  -0.180000       12.0107           0
   17570 O1   38   DMPC H12R HAL2   0.090000        1.0079           0
   17571 O1   38   DMPC H12S HAL2   0.090000        1.0079           0
   17572 O1   38   DMPC C213 CTL2  -0.180000       12.0107           0
   17573 O1   38   DMPC H13R HAL2   0.090000        1.0079           0
   17574 O1   38   DMPC H13S HAL2   0.090000        1.0079           0
   17575 O1   38   DMPC C214 CTL3  -0.270000       12.0107           0
   17576 O1   38   DMPC H14R HAL3   0.090000        1.0079           0
   17577 O1   38   DMPC H14S HAL3   0.090000        1.0079           0
   17578 O1   38   DMPC H14T HAL3   0.090000        1.0079           0
   17579 O1   38   DMPC C33  CTL2  -0.180000       12.0107           0
   17580 O1   38   DMPC H3X  HAL2   0.090000        1.0079           0
   17581 O1   38   DMPC H3Y  HAL2   0.090000        1.0079           0
   17582 O1   38   DMPC C34  CTL2  -0.180000       12.0107           0
   17583 O1   38   DMPC H4X  HAL2   0.090000        1.0079           0
   17584 O1   38   DMPC H4Y  HAL2   0.090000        1.0079           0
   17585 O1   38   DMPC C35  CTL2  -0.180000       12.0107           0
   17586 O1   38   DMPC H5X  HAL2   0.090000        1.0079           0
   17587 O1   38   DMPC H5Y  HAL2   0.090000        1.0079           0
   17588 O1   38   DMPC C36  CTL2  -0.180000       12.0107           0
   17589 O1   38   DMPC H6X  HAL2   0.090000        1.0079           0
   17590 O1   38   DMPC H6Y  HAL2   0.090000        1.0079           0
   17591 O1   38   DMPC C37  CTL2  -0.180000       12.0107           0
   17592 O1   38   DMPC H7X  HAL2   0.090000        1.0079           0
   17593 O1   38   DMPC H7Y  HAL2   0.090000        1.0079           0
   17594 O1   38   DMPC C38  CTL2  -0.180000       12.0107           0
   17595 O1   38   DMPC H8X  HAL2   0.090000        1.0079           0
   17596 O1   38   DMPC H8Y  HAL2   0.090000        1.0079           0
   17597 O1   38   DMPC C39  CTL2  -0.180000       12.0107           0
   17598 O1   38   DMPC H9X  HAL2   0.090000        1.0079           0
   17599 O1   38   DMPC H9Y  HAL2   0.090000        1.0079           0
   17600 O1   38   DMPC C310 CTL2  -0.180000       12.0107           0
   17601 O1   38   DMPC H10X HAL2   0.090000        1.0079           0
   17602 O1   38   DMPC H10Y HAL2   0.090000        1.0079           0
   17603 O1   38   DMPC C311 CTL2  -0.180000       12.0107           0
   17604 O1   38   DMPC H11X HAL2   0.090000        1.0079           0
   17605 O1   38   DMPC H11Y HAL2   0.090000        1.0079           0
   17606 O1   38   DMPC C312 CTL2  -0.180000       12.0107           0
   17607 O1   38   DMPC H12X HAL2   0.090000        1.0079           0
   17608 O1   38   DMPC H12Y HAL2   0.090000        1.0079           0
   17609 O1   38   DMPC C313 CTL2  -0.180000       12.0107           0
   17610 O1   38   DMPC H13X HAL2   0.090000        1.0079           0
   17611 O1   38   DMPC H13Y HAL2   0.090000        1.0079           0
   17612 O1   38   DMPC C314 CTL3  -0.270000       12.0107           0
   17613 O1   38   DMPC H14X HAL3   0.090000        1.0079           0
   17614 O1   38   DMPC H14Y HAL3   0.090000        1.0079           0
   17615 O1   38   DMPC H14Z HAL3   0.090000        1.0079           0
   17616 O1   39   DMPC N    NTL   -0.600000       14.0067           0
   17617 O1   39   DMPC C13  CTL5  -0.350000       12.0107           0
   17618 O1   39   DMPC H13A HL     0.250000        1.0079           0
   17619 O1   39   DMPC H13B HL     0.250000        1.0079           0
   17620 O1   39   DMPC H13C HL     0.250000        1.0079           0
   17621 O1   39   DMPC C14  CTL5  -0.350000       12.0107           0
   17622 O1   39   DMPC H14A HL     0.250000        1.0079           0
   17623 O1   39   DMPC H14B HL     0.250000        1.0079           0
   17624 O1   39   DMPC H14C HL     0.250000        1.0079           0
   17625 O1   39   DMPC C15  CTL5  -0.350000       12.0107           0
   17626 O1   39   DMPC H15A HL     0.250000        1.0079           0
   17627 O1   39   DMPC H15B HL     0.250000        1.0079           0
   17628 O1   39   DMPC H15C HL     0.250000        1.0079           0
   17629 O1   39   DMPC C12  CTL2  -0.100000       12.0107           0
   17630 O1   39   DMPC H12A HL     0.250000        1.0079           0
   17631 O1   39   DMPC H12B HL     0.250000        1.0079           0
   17632 O1   39   DMPC C11  CTL2  -0.080000       12.0107           0
   17633 O1   39   DMPC H11A HAL2   0.090000        1.0079           0
   17634 O1   39   DMPC H11B HAL2   0.090000        1.0079           0
   17635 O1   39   DMPC P    PL     1.500000       30.9738           0
   17636 O1   39   DMPC O13  O2L   -0.780000       15.9994           0
   17637 O1   39   DMPC O14  O2L   -0.780000       15.9994           0
   17638 O1   39   DMPC O11  OSLP  -0.570000       15.9994           0
   17639 O1   39   DMPC O12  OSLP  -0.570000       15.9994           0
   17640 O1   39   DMPC C1   CTL2  -0.080000       12.0107           0
   17641 O1   39   DMPC HA   HAL2   0.090000        1.0079           0
   17642 O1   39   DMPC HB   HAL2   0.090000        1.0079           0
   17643 O1   39   DMPC C2   CTL1   0.170000       12.0107           0
   17644 O1   39   DMPC HS   HAL1   0.090000        1.0079           0
   17645 O1   39   DMPC O21  OSL   -0.490000       15.9994           0
   17646 O1   39   DMPC C21  CL     0.900000       12.0107           0
   17647 O1   39   DMPC O22  OBL   -0.630000       15.9994           0
   17648 O1   39   DMPC C22  CTL2  -0.220000       12.0107           0
   17649 O1   39   DMPC H2R  HAL2   0.090000        1.0079           0
   17650 O1   39   DMPC H2S  HAL2   0.090000        1.0079           0
   17651 O1   39   DMPC C3   CTL2   0.080000       12.0107           0
   17652 O1   39   DMPC HX   HAL2   0.090000        1.0079           0
   17653 O1   39   DMPC HY   HAL2   0.090000        1.0079           0
   17654 O1   39   DMPC O31  OSL   -0.490000       15.9994           0
   17655 O1   39   DMPC C31  CL     0.900000       12.0107           0
   17656 O1   39   DMPC O32  OBL   -0.630000       15.9994           0
   17657 O1   39   DMPC C32  CTL2  -0.220000       12.0107           0
   17658 O1   39   DMPC H2X  HAL2   0.090000        1.0079           0
   17659 O1   39   DMPC H2Y  HAL2   0.090000        1.0079           0
   17660 O1   39   DMPC C23  CTL2  -0.180000       12.0107           0
   17661 O1   39   DMPC H3R  HAL2   0.090000        1.0079           0
   17662 O1   39   DMPC H3S  HAL2   0.090000        1.0079           0
   17663 O1   39   DMPC C24  CTL2  -0.180000       12.0107           0
   17664 O1   39   DMPC H4R  HAL2   0.090000        1.0079           0
   17665 O1   39   DMPC H4S  HAL2   0.090000        1.0079           0
   17666 O1   39   DMPC C25  CTL2  -0.180000       12.0107           0
   17667 O1   39   DMPC H5R  HAL2   0.090000        1.0079           0
   17668 O1   39   DMPC H5S  HAL2   0.090000        1.0079           0
   17669 O1   39   DMPC C26  CTL2  -0.180000       12.0107           0
   17670 O1   39   DMPC H6R  HAL2   0.090000        1.0079           0
   17671 O1   39   DMPC H6S  HAL2   0.090000        1.0079           0
   17672 O1   39   DMPC C27  CTL2  -0.180000       12.0107           0
   17673 O1   39   DMPC H7R  HAL2   0.090000        1.0079           0
   17674 O1   39   DMPC H7S  HAL2   0.090000        1.0079           0
   17675 O1   39   DMPC C28  CTL2  -0.180000       12.0107           0
   17676 O1   39   DMPC H8R  HAL2   0.090000        1.0079           0
   17677 O1   39   DMPC H8S  HAL2   0.090000        1.0079           0
   17678 O1   39   DMPC C29  CTL2  -0.180000       12.0107           0
   17679 O1   39   DMPC H9R  HAL2   0.090000        1.0079           0
   17680 O1   39   DMPC H9S  HAL2   0.090000        1.0079           0
   17681 O1   39   DMPC C210 CTL2  -0.180000       12.0107           0
   17682 O1   39   DMPC H10R HAL2   0.090000        1.0079           0
   17683 O1   39   DMPC H10S HAL2   0.090000        1.0079           0
   17684 O1   39   DMPC C211 CTL2  -0.180000       12.0107           0
   17685 O1   39   DMPC H11R HAL2   0.090000        1.0079           0
   17686 O1   39   DMPC H11S HAL2   0.090000        1.0079           0
   17687 O1   39   DMPC C212 CTL2  -0.180000       12.0107           0
   17688 O1   39   DMPC H12R HAL2   0.090000        1.0079           0
   17689 O1   39   DMPC H12S HAL2   0.090000        1.0079           0
   17690 O1   39   DMPC C213 CTL2  -0.180000       12.0107           0
   17691 O1   39   DMPC H13R HAL2   0.090000        1.0079           0
   17692 O1   39   DMPC H13S HAL2   0.090000        1.0079           0
   17693 O1   39   DMPC C214 CTL3  -0.270000       12.0107           0
   17694 O1   39   DMPC H14R HAL3   0.090000        1.0079           0
   17695 O1   39   DMPC H14S HAL3   0.090000        1.0079           0
   17696 O1   39   DMPC H14T HAL3   0.090000        1.0079           0
   17697 O1   39   DMPC C33  CTL2  -0.180000       12.0107           0
   17698 O1   39   DMPC H3X  HAL2   0.090000        1.0079           0
   17699 O1   39   DMPC H3Y  HAL2   0.090000        1.0079           0
   17700 O1   39   DMPC C34  CTL2  -0.180000       12.0107           0
   17701 O1   39   DMPC H4X  HAL2   0.090000        1.0079           0
   17702 O1   39   DMPC H4Y  HAL2   0.090000        1.0079           0
   17703 O1   39   DMPC C35  CTL2  -0.180000       12.0107           0
   17704 O1   39   DMPC H5X  HAL2   0.090000        1.0079           0
   17705 O1   39   DMPC H5Y  HAL2   0.090000        1.0079           0
   17706 O1   39   DMPC C36  CTL2  -0.180000       12.0107           0
   17707 O1   39   DMPC H6X  HAL2   0.090000        1.0079           0
   17708 O1   39   DMPC H6Y  HAL2   0.090000        1.0079           0
   17709 O1   39   DMPC C37  CTL2  -0.180000       12.0107           0
   17710 O1   39   DMPC H7X  HAL2   0.090000        1.0079           0
   17711 O1   39   DMPC H7Y  HAL2   0.090000        1.0079           0
   17712 O1   39   DMPC C38  CTL2  -0.180000       12.0107           0
   17713 O1   39   DMPC H8X  HAL2   0.090000        1.0079           0
   17714 O1   39   DMPC H8Y  HAL2   0.090000        1.0079           0
   17715 O1   39   DMPC C39  CTL2  -0.180000       12.0107           0
   17716 O1   39   DMPC H9X  HAL2   0.090000        1.0079           0
   17717 O1   39   DMPC H9Y  HAL2   0.090000        1.0079           0
   17718 O1   39   DMPC C310 CTL2  -0.180000       12.0107           0
   17719 O1   39   DMPC H10X HAL2   0.090000        1.0079           0
   17720 O1   39   DMPC H10Y HAL2   0.090000        1.0079           0
   17721 O1   39   DMPC C311 CTL2  -0.180000       12.0107           0
   17722 O1   39   DMPC H11X HAL2   0.090000        1.0079           0
   17723 O1   39   DMPC H11Y HAL2   0.090000        1.0079           0
   17724 O1   39   DMPC C312 CTL2  -0.180000       12.0107           0
   17725 O1   39   DMPC H12X HAL2   0.090000        1.0079           0
   17726 O1   39   DMPC H12Y HAL2   0.090000        1.0079           0
   17727 O1   39   DMPC C313 CTL2  -0.180000       12.0107           0
   17728 O1   39   DMPC H13X HAL2   0.090000        1.0079           0
   17729 O1   39   DMPC H13Y HAL2   0.090000        1.0079           0
   17730 O1   39   DMPC C314 CTL3  -0.270000       12.0107           0
   17731 O1   39   DMPC H14X HAL3   0.090000        1.0079           0
   17732 O1   39   DMPC H14Y HAL3   0.090000        1.0079           0
   17733 O1   39   DMPC H14Z HAL3   0.090000        1.0079           0
   17734 O1   40   DMPC N    NTL   -0.600000       14.0067           0
   17735 O1   40   DMPC C13  CTL5  -0.350000       12.0107           0
   17736 O1   40   DMPC H13A HL     0.250000        1.0079           0
   17737 O1   40   DMPC H13B HL     0.250000        1.0079           0
   17738 O1   40   DMPC H13C HL     0.250000        1.0079           0
   17739 O1   40   DMPC C14  CTL5  -0.350000       12.0107           0
   17740 O1   40   DMPC H14A HL     0.250000        1.0079           0
   17741 O1   40   DMPC H14B HL     0.250000        1.0079           0
   17742 O1   40   DMPC H14C HL     0.250000        1.0079           0
   17743 O1   40   DMPC C15  CTL5  -0.350000       12.0107           0
   17744 O1   40   DMPC H15A HL     0.250000        1.0079           0
   17745 O1   40   DMPC H15B HL     0.250000        1.0079           0
   17746 O1   40   DMPC H15C HL     0.250000        1.0079           0
   17747 O1   40   DMPC C12  CTL2  -0.100000       12.0107           0
   17748 O1   40   DMPC H12A HL     0.250000        1.0079           0
   17749 O1   40   DMPC H12B HL     0.250000        1.0079           0
   17750 O1   40   DMPC C11  CTL2  -0.080000       12.0107           0
   17751 O1   40   DMPC H11A HAL2   0.090000        1.0079           0
   17752 O1   40   DMPC H11B HAL2   0.090000        1.0079           0
   17753 O1   40   DMPC P    PL     1.500000       30.9738           0
   17754 O1   40   DMPC O13  O2L   -0.780000       15.9994           0
   17755 O1   40   DMPC O14  O2L   -0.780000       15.9994           0
   17756 O1   40   DMPC O11  OSLP  -0.570000       15.9994           0
   17757 O1   40   DMPC O12  OSLP  -0.570000       15.9994           0
   17758 O1   40   DMPC C1   CTL2  -0.080000       12.0107           0
   17759 O1   40   DMPC HA   HAL2   0.090000        1.0079           0
   17760 O1   40   DMPC HB   HAL2   0.090000        1.0079           0
   17761 O1   40   DMPC C2   CTL1   0.170000       12.0107           0
   17762 O1   40   DMPC HS   HAL1   0.090000        1.0079           0
   17763 O1   40   DMPC O21  OSL   -0.490000       15.9994           0
   17764 O1   40   DMPC C21  CL     0.900000       12.0107           0
   17765 O1   40   DMPC O22  OBL   -0.630000       15.9994           0
   17766 O1   40   DMPC C22  CTL2  -0.220000       12.0107           0
   17767 O1   40   DMPC H2R  HAL2   0.090000        1.0079           0
   17768 O1   40   DMPC H2S  HAL2   0.090000        1.0079           0
   17769 O1   40   DMPC C3   CTL2   0.080000       12.0107           0
   17770 O1   40   DMPC HX   HAL2   0.090000        1.0079           0
   17771 O1   40   DMPC HY   HAL2   0.090000        1.0079           0
   17772 O1   40   DMPC O31  OSL   -0.490000       15.9994           0
   17773 O1   40   DMPC C31  CL     0.900000       12.0107           0
   17774 O1   40   DMPC O32  OBL   -0.630000       15.9994           0
   17775 O1   40   DMPC C32  CTL2  -0.220000       12.0107           0
   17776 O1   40   DMPC H2X  HAL2   0.090000        1.0079           0
   17777 O1   40   DMPC H2Y  HAL2   0.090000        1.0079           0
   17778 O1   40   DMPC C23  CTL2  -0.180000       12.0107           0
   17779 O1   40   DMPC H3R  HAL2   0.090000        1.0079           0
   17780 O1   40   DMPC H3S  HAL2   0.090000        1.0079           0
   17781 O1   40   DMPC C24  CTL2  -0.180000       12.0107           0
   17782 O1   40   DMPC H4R  HAL2   0.090000        1.0079           0
   17783 O1   40   DMPC H4S  HAL2   0.090000        1.0079           0
   17784 O1   40   DMPC C25  CTL2  -0.180000       12.0107           0
   17785 O1   40   DMPC H5R  HAL2   0.090000        1.0079           0
   17786 O1   40   DMPC H5S  HAL2   0.090000        1.0079           0
   17787 O1   40   DMPC C26  CTL2  -0.180000       12.0107           0
   17788 O1   40   DMPC H6R  HAL2   0.090000        1.0079           0
   17789 O1   40   DMPC H6S  HAL2   0.090000        1.0079           0
   17790 O1   40   DMPC C27  CTL2  -0.180000       12.0107           0
   17791 O1   40   DMPC H7R  HAL2   0.090000        1.0079           0
   17792 O1   40   DMPC H7S  HAL2   0.090000        1.0079           0
   17793 O1   40   DMPC C28  CTL2  -0.180000       12.0107           0
   17794 O1   40   DMPC H8R  HAL2   0.090000        1.0079           0
   17795 O1   40   DMPC H8S  HAL2   0.090000        1.0079           0
   17796 O1   40   DMPC C29  CTL2  -0.180000       12.0107           0
   17797 O1   40   DMPC H9R  HAL2   0.090000        1.0079           0
   17798 O1   40   DMPC H9S  HAL2   0.090000        1.0079           0
   17799 O1   40   DMPC C210 CTL2  -0.180000       12.0107           0
   17800 O1   40   DMPC H10R HAL2   0.090000        1.0079           0
   17801 O1   40   DMPC H10S HAL2   0.090000        1.0079           0
   17802 O1   40   DMPC C211 CTL2  -0.180000       12.0107           0
   17803 O1   40   DMPC H11R HAL2   0.090000        1.0079           0
   17804 O1   40   DMPC H11S HAL2   0.090000        1.0079           0
   17805 O1   40   DMPC C212 CTL2  -0.180000       12.0107           0
   17806 O1   40   DMPC H12R HAL2   0.090000        1.0079           0
   17807 O1   40   DMPC H12S HAL2   0.090000        1.0079           0
   17808 O1   40   DMPC C213 CTL2  -0.180000       12.0107           0
   17809 O1   40   DMPC H13R HAL2   0.090000        1.0079           0
   17810 O1   40   DMPC H13S HAL2   0.090000        1.0079           0
   17811 O1   40   DMPC C214 CTL3  -0.270000       12.0107           0
   17812 O1   40   DMPC H14R HAL3   0.090000        1.0079           0
   17813 O1   40   DMPC H14S HAL3   0.090000        1.0079           0
   17814 O1   40   DMPC H14T HAL3   0.090000        1.0079           0
   17815 O1   40   DMPC C33  CTL2  -0.180000       12.0107           0
   17816 O1   40   DMPC H3X  HAL2   0.090000        1.0079           0
   17817 O1   40   DMPC H3Y  HAL2   0.090000        1.0079           0
   17818 O1   40   DMPC C34  CTL2  -0.180000       12.0107           0
   17819 O1   40   DMPC H4X  HAL2   0.090000        1.0079           0
   17820 O1   40   DMPC H4Y  HAL2   0.090000        1.0079           0
   17821 O1   40   DMPC C35  CTL2  -0.180000       12.0107           0
   17822 O1   40   DMPC H5X  HAL2   0.090000        1.0079           0
   17823 O1   40   DMPC H5Y  HAL2   0.090000        1.0079           0
   17824 O1   40   DMPC C36  CTL2  -0.180000       12.0107           0
   17825 O1   40   DMPC H6X  HAL2   0.090000        1.0079           0
   17826 O1   40   DMPC H6Y  HAL2   0.090000        1.0079           0
   17827 O1   40   DMPC C37  CTL2  -0.180000       12.0107           0
   17828 O1   40   DMPC H7X  HAL2   0.090000        1.0079           0
   17829 O1   40   DMPC H7Y  HAL2   0.090000        1.0079           0
   17830 O1   40   DMPC C38  CTL2  -0.180000       12.0107           0
   17831 O1   40   DMPC H8X  HAL2   0.090000        1.0079           0
   17832 O1   40   DMPC H8Y  HAL2   0.090000        1.0079           0
   17833 O1   40   DMPC C39  CTL2  -0.180000       12.0107           0
   17834 O1   40   DMPC H9X  HAL2   0.090000        1.0079           0
   17835 O1   40   DMPC H9Y  HAL2   0.090000        1.0079           0
   17836 O1   40   DMPC C310 CTL2  -0.180000       12.0107           0
   17837 O1   40   DMPC H10X HAL2   0.090000        1.0079           0
   17838 O1   40   DMPC H10Y HAL2   0.090000        1.0079           0
   17839 O1   40   DMPC C311 CTL2  -0.180000       12.0107           0
   17840 O1   40   DMPC H11X HAL2   0.090000        1.0079           0
   17841 O1   40   DMPC H11Y HAL2   0.090000        1.0079           0
   17842 O1   40   DMPC C312 CTL2  -0.180000       12.0107           0
   17843 O1   40   DMPC H12X HAL2   0.090000        1.0079           0
   17844 O1   40   DMPC H12Y HAL2   0.090000        1.0079           0
   17845 O1   40   DMPC C313 CTL2  -0.180000       12.0107           0
   17846 O1   40   DMPC H13X HAL2   0.090000        1.0079           0
   17847 O1   40   DMPC H13Y HAL2   0.090000        1.0079           0
   17848 O1   40   DMPC C314 CTL3  -0.270000       12.0107           0
   17849 O1   40   DMPC H14X HAL3   0.090000        1.0079           0
   17850 O1   40   DMPC H14Y HAL3   0.090000        1.0079           0
   17851 O1   40   DMPC H14Z HAL3   0.090000        1.0079           0
   17852 O1   41   DMPC N    NTL   -0.600000       14.0067           0
   17853 O1   41   DMPC C13  CTL5  -0.350000       12.0107           0
   17854 O1   41   DMPC H13A HL     0.250000        1.0079           0
   17855 O1   41   DMPC H13B HL     0.250000        1.0079           0
   17856 O1   41   DMPC H13C HL     0.250000        1.0079           0
   17857 O1   41   DMPC C14  CTL5  -0.350000       12.0107           0
   17858 O1   41   DMPC H14A HL     0.250000        1.0079           0
   17859 O1   41   DMPC H14B HL     0.250000        1.0079           0
   17860 O1   41   DMPC H14C HL     0.250000        1.0079           0
   17861 O1   41   DMPC C15  CTL5  -0.350000       12.0107           0
   17862 O1   41   DMPC H15A HL     0.250000        1.0079           0
   17863 O1   41   DMPC H15B HL     0.250000        1.0079           0
   17864 O1   41   DMPC H15C HL     0.250000        1.0079           0
   17865 O1   41   DMPC C12  CTL2  -0.100000       12.0107           0
   17866 O1   41   DMPC H12A HL     0.250000        1.0079           0
   17867 O1   41   DMPC H12B HL     0.250000        1.0079           0
   17868 O1   41   DMPC C11  CTL2  -0.080000       12.0107           0
   17869 O1   41   DMPC H11A HAL2   0.090000        1.0079           0
   17870 O1   41   DMPC H11B HAL2   0.090000        1.0079           0
   17871 O1   41   DMPC P    PL     1.500000       30.9738           0
   17872 O1   41   DMPC O13  O2L   -0.780000       15.9994           0
   17873 O1   41   DMPC O14  O2L   -0.780000       15.9994           0
   17874 O1   41   DMPC O11  OSLP  -0.570000       15.9994           0
   17875 O1   41   DMPC O12  OSLP  -0.570000       15.9994           0
   17876 O1   41   DMPC C1   CTL2  -0.080000       12.0107           0
   17877 O1   41   DMPC HA   HAL2   0.090000        1.0079           0
   17878 O1   41   DMPC HB   HAL2   0.090000        1.0079           0
   17879 O1   41   DMPC C2   CTL1   0.170000       12.0107           0
   17880 O1   41   DMPC HS   HAL1   0.090000        1.0079           0
   17881 O1   41   DMPC O21  OSL   -0.490000       15.9994           0
   17882 O1   41   DMPC C21  CL     0.900000       12.0107           0
   17883 O1   41   DMPC O22  OBL   -0.630000       15.9994           0
   17884 O1   41   DMPC C22  CTL2  -0.220000       12.0107           0
   17885 O1   41   DMPC H2R  HAL2   0.090000        1.0079           0
   17886 O1   41   DMPC H2S  HAL2   0.090000        1.0079           0
   17887 O1   41   DMPC C3   CTL2   0.080000       12.0107           0
   17888 O1   41   DMPC HX   HAL2   0.090000        1.0079           0
   17889 O1   41   DMPC HY   HAL2   0.090000        1.0079           0
   17890 O1   41   DMPC O31  OSL   -0.490000       15.9994           0
   17891 O1   41   DMPC C31  CL     0.900000       12.0107           0
   17892 O1   41   DMPC O32  OBL   -0.630000       15.9994           0
   17893 O1   41   DMPC C32  CTL2  -0.220000       12.0107           0
   17894 O1   41   DMPC H2X  HAL2   0.090000        1.0079           0
   17895 O1   41   DMPC H2Y  HAL2   0.090000        1.0079           0
   17896 O1   41   DMPC C23  CTL2  -0.180000       12.0107           0
   17897 O1   41   DMPC H3R  HAL2   0.090000        1.0079           0
   17898 O1   41   DMPC H3S  HAL2   0.090000        1.0079           0
   17899 O1   41   DMPC C24  CTL2  -0.180000       12.0107           0
   17900 O1   41   DMPC H4R  HAL2   0.090000        1.0079           0
   17901 O1   41   DMPC H4S  HAL2   0.090000        1.0079           0
   17902 O1   41   DMPC C25  CTL2  -0.180000       12.0107           0
   17903 O1   41   DMPC H5R  HAL2   0.090000        1.0079           0
   17904 O1   41   DMPC H5S  HAL2   0.090000        1.0079           0
   17905 O1   41   DMPC C26  CTL2  -0.180000       12.0107           0
   17906 O1   41   DMPC H6R  HAL2   0.090000        1.0079           0
   17907 O1   41   DMPC H6S  HAL2   0.090000        1.0079           0
   17908 O1   41   DMPC C27  CTL2  -0.180000       12.0107           0
   17909 O1   41   DMPC H7R  HAL2   0.090000        1.0079           0
   17910 O1   41   DMPC H7S  HAL2   0.090000        1.0079           0
   17911 O1   41   DMPC C28  CTL2  -0.180000       12.0107           0
   17912 O1   41   DMPC H8R  HAL2   0.090000        1.0079           0
   17913 O1   41   DMPC H8S  HAL2   0.090000        1.0079           0
   17914 O1   41   DMPC C29  CTL2  -0.180000       12.0107           0
   17915 O1   41   DMPC H9R  HAL2   0.090000        1.0079           0
   17916 O1   41   DMPC H9S  HAL2   0.090000        1.0079           0
   17917 O1   41   DMPC C210 CTL2  -0.180000       12.0107           0
   17918 O1   41   DMPC H10R HAL2   0.090000        1.0079           0
   17919 O1   41   DMPC H10S HAL2   0.090000        1.0079           0
   17920 O1   41   DMPC C211 CTL2  -0.180000       12.0107           0
   17921 O1   41   DMPC H11R HAL2   0.090000        1.0079           0
   17922 O1   41   DMPC H11S HAL2   0.090000        1.0079           0
   17923 O1   41   DMPC C212 CTL2  -0.180000       12.0107           0
   17924 O1   41   DMPC H12R HAL2   0.090000        1.0079           0
   17925 O1   41   DMPC H12S HAL2   0.090000        1.0079           0
   17926 O1   41   DMPC C213 CTL2  -0.180000       12.0107           0
   17927 O1   41   DMPC H13R HAL2   0.090000        1.0079           0
   17928 O1   41   DMPC H13S HAL2   0.090000        1.0079           0
   17929 O1   41   DMPC C214 CTL3  -0.270000       12.0107           0
   17930 O1   41   DMPC H14R HAL3   0.090000        1.0079           0
   17931 O1   41   DMPC H14S HAL3   0.090000        1.0079           0
   17932 O1   41   DMPC H14T HAL3   0.090000        1.0079           0
   17933 O1   41   DMPC C33  CTL2  -0.180000       12.0107           0
   17934 O1   41   DMPC H3X  HAL2   0.090000        1.0079           0
   17935 O1   41   DMPC H3Y  HAL2   0.090000        1.0079           0
   17936 O1   41   DMPC C34  CTL2  -0.180000       12.0107           0
   17937 O1   41   DMPC H4X  HAL2   0.090000        1.0079           0
   17938 O1   41   DMPC H4Y  HAL2   0.090000        1.0079           0
   17939 O1   41   DMPC C35  CTL2  -0.180000       12.0107           0
   17940 O1   41   DMPC H5X  HAL2   0.090000        1.0079           0
   17941 O1   41   DMPC H5Y  HAL2   0.090000        1.0079           0
   17942 O1   41   DMPC C36  CTL2  -0.180000       12.0107           0
   17943 O1   41   DMPC H6X  HAL2   0.090000        1.0079           0
   17944 O1   41   DMPC H6Y  HAL2   0.090000        1.0079           0
   17945 O1   41   DMPC C37  CTL2  -0.180000       12.0107           0
   17946 O1   41   DMPC H7X  HAL2   0.090000        1.0079           0
   17947 O1   41   DMPC H7Y  HAL2   0.090000        1.0079           0
   17948 O1   41   DMPC C38  CTL2  -0.180000       12.0107           0
   17949 O1   41   DMPC H8X  HAL2   0.090000        1.0079           0
   17950 O1   41   DMPC H8Y  HAL2   0.090000        1.0079           0
   17951 O1   41   DMPC C39  CTL2  -0.180000       12.0107           0
   17952 O1   41   DMPC H9X  HAL2   0.090000        1.0079           0
   17953 O1   41   DMPC H9Y  HAL2   0.090000        1.0079           0
   17954 O1   41   DMPC C310 CTL2  -0.180000       12.0107           0
   17955 O1   41   DMPC H10X HAL2   0.090000        1.0079           0
   17956 O1   41   DMPC H10Y HAL2   0.090000        1.0079           0
   17957 O1   41   DMPC C311 CTL2  -0.180000       12.0107           0
   17958 O1   41   DMPC H11X HAL2   0.090000        1.0079           0
   17959 O1   41   DMPC H11Y HAL2   0.090000        1.0079           0
   17960 O1   41   DMPC C312 CTL2  -0.180000       12.0107           0
   17961 O1   41   DMPC H12X HAL2   0.090000        1.0079           0
   17962 O1   41   DMPC H12Y HAL2   0.090000        1.0079           0
   17963 O1   41   DMPC C313 CTL2  -0.180000       12.0107           0
   17964 O1   41   DMPC H13X HAL2   0.090000        1.0079           0
   17965 O1   41   DMPC H13Y HAL2   0.090000        1.0079           0
   17966 O1   41   DMPC C314 CTL3  -0.270000       12.0107           0
   17967 O1   41   DMPC H14X HAL3   0.090000        1.0079           0
   17968 O1   41   DMPC H14Y HAL3   0.090000        1.0079           0
   17969 O1   41   DMPC H14Z HAL3   0.090000        1.0079           0
   17970 O1   42   DMPC N    NTL   -0.600000       14.0067           0
   17971 O1   42   DMPC C13  CTL5  -0.350000       12.0107           0
   17972 O1   42   DMPC H13A HL     0.250000        1.0079           0
   17973 O1   42   DMPC H13B HL     0.250000        1.0079           0
   17974 O1   42   DMPC H13C HL     0.250000        1.0079           0
   17975 O1   42   DMPC C14  CTL5  -0.350000       12.0107           0
   17976 O1   42   DMPC H14A HL     0.250000        1.0079           0
   17977 O1   42   DMPC H14B HL     0.250000        1.0079           0
   17978 O1   42   DMPC H14C HL     0.250000        1.0079           0
   17979 O1   42   DMPC C15  CTL5  -0.350000       12.0107           0
   17980 O1   42   DMPC H15A HL     0.250000        1.0079           0
   17981 O1   42   DMPC H15B HL     0.250000        1.0079           0
   17982 O1   42   DMPC H15C HL     0.250000        1.0079           0
   17983 O1   42   DMPC C12  CTL2  -0.100000       12.0107           0
   17984 O1   42   DMPC H12A HL     0.250000        1.0079           0
   17985 O1   42   DMPC H12B HL     0.250000        1.0079           0
   17986 O1   42   DMPC C11  CTL2  -0.080000       12.0107           0
   17987 O1   42   DMPC H11A HAL2   0.090000        1.0079           0
   17988 O1   42   DMPC H11B HAL2   0.090000        1.0079           0
   17989 O1   42   DMPC P    PL     1.500000       30.9738           0
   17990 O1   42   DMPC O13  O2L   -0.780000       15.9994           0
   17991 O1   42   DMPC O14  O2L   -0.780000       15.9994           0
   17992 O1   42   DMPC O11  OSLP  -0.570000       15.9994           0
   17993 O1   42   DMPC O12  OSLP  -0.570000       15.9994           0
   17994 O1   42   DMPC C1   CTL2  -0.080000       12.0107           0
   17995 O1   42   DMPC HA   HAL2   0.090000        1.0079           0
   17996 O1   42   DMPC HB   HAL2   0.090000        1.0079           0
   17997 O1   42   DMPC C2   CTL1   0.170000       12.0107           0
   17998 O1   42   DMPC HS   HAL1   0.090000        1.0079           0
   17999 O1   42   DMPC O21  OSL   -0.490000       15.9994           0
   18000 O1   42   DMPC C21  CL     0.900000       12.0107           0
   18001 O1   42   DMPC O22  OBL   -0.630000       15.9994           0
   18002 O1   42   DMPC C22  CTL2  -0.220000       12.0107           0
   18003 O1   42   DMPC H2R  HAL2   0.090000        1.0079           0
   18004 O1   42   DMPC H2S  HAL2   0.090000        1.0079           0
   18005 O1   42   DMPC C3   CTL2   0.080000       12.0107           0
   18006 O1   42   DMPC HX   HAL2   0.090000        1.0079           0
   18007 O1   42   DMPC HY   HAL2   0.090000        1.0079           0
   18008 O1   42   DMPC O31  OSL   -0.490000       15.9994           0
   18009 O1   42   DMPC C31  CL     0.900000       12.0107           0
   18010 O1   42   DMPC O32  OBL   -0.630000       15.9994           0
   18011 O1   42   DMPC C32  CTL2  -0.220000       12.0107           0
   18012 O1   42   DMPC H2X  HAL2   0.090000        1.0079           0
   18013 O1   42   DMPC H2Y  HAL2   0.090000        1.0079           0
   18014 O1   42   DMPC C23  CTL2  -0.180000       12.0107           0
   18015 O1   42   DMPC H3R  HAL2   0.090000        1.0079           0
   18016 O1   42   DMPC H3S  HAL2   0.090000        1.0079           0
   18017 O1   42   DMPC C24  CTL2  -0.180000       12.0107           0
   18018 O1   42   DMPC H4R  HAL2   0.090000        1.0079           0
   18019 O1   42   DMPC H4S  HAL2   0.090000        1.0079           0
   18020 O1   42   DMPC C25  CTL2  -0.180000       12.0107           0
   18021 O1   42   DMPC H5R  HAL2   0.090000        1.0079           0
   18022 O1   42   DMPC H5S  HAL2   0.090000        1.0079           0
   18023 O1   42   DMPC C26  CTL2  -0.180000       12.0107           0
   18024 O1   42   DMPC H6R  HAL2   0.090000        1.0079           0
   18025 O1   42   DMPC H6S  HAL2   0.090000        1.0079           0
   18026 O1   42   DMPC C27  CTL2  -0.180000       12.0107           0
   18027 O1   42   DMPC H7R  HAL2   0.090000        1.0079           0
   18028 O1   42   DMPC H7S  HAL2   0.090000        1.0079           0
   18029 O1   42   DMPC C28  CTL2  -0.180000       12.0107           0
   18030 O1   42   DMPC H8R  HAL2   0.090000        1.0079           0
   18031 O1   42   DMPC H8S  HAL2   0.090000        1.0079           0
   18032 O1   42   DMPC C29  CTL2  -0.180000       12.0107           0
   18033 O1   42   DMPC H9R  HAL2   0.090000        1.0079           0
   18034 O1   42   DMPC H9S  HAL2   0.090000        1.0079           0
   18035 O1   42   DMPC C210 CTL2  -0.180000       12.0107           0
   18036 O1   42   DMPC H10R HAL2   0.090000        1.0079           0
   18037 O1   42   DMPC H10S HAL2   0.090000        1.0079           0
   18038 O1   42   DMPC C211 CTL2  -0.180000       12.0107           0
   18039 O1   42   DMPC H11R HAL2   0.090000        1.0079           0
   18040 O1   42   DMPC H11S HAL2   0.090000        1.0079           0
   18041 O1   42   DMPC C212 CTL2  -0.180000       12.0107           0
   18042 O1   42   DMPC H12R HAL2   0.090000        1.0079           0
   18043 O1   42   DMPC H12S HAL2   0.090000        1.0079           0
   18044 O1   42   DMPC C213 CTL2  -0.180000       12.0107           0
   18045 O1   42   DMPC H13R HAL2   0.090000        1.0079           0
   18046 O1   42   DMPC H13S HAL2   0.090000        1.0079           0
   18047 O1   42   DMPC C214 CTL3  -0.270000       12.0107           0
   18048 O1   42   DMPC H14R HAL3   0.090000        1.0079           0
   18049 O1   42   DMPC H14S HAL3   0.090000        1.0079           0
   18050 O1   42   DMPC H14T HAL3   0.090000        1.0079           0
   18051 O1   42   DMPC C33  CTL2  -0.180000       12.0107           0
   18052 O1   42   DMPC H3X  HAL2   0.090000        1.0079           0
   18053 O1   42   DMPC H3Y  HAL2   0.090000        1.0079           0
   18054 O1   42   DMPC C34  CTL2  -0.180000       12.0107           0
   18055 O1   42   DMPC H4X  HAL2   0.090000        1.0079           0
   18056 O1   42   DMPC H4Y  HAL2   0.090000        1.0079           0
   18057 O1   42   DMPC C35  CTL2  -0.180000       12.0107           0
   18058 O1   42   DMPC H5X  HAL2   0.090000        1.0079           0
   18059 O1   42   DMPC H5Y  HAL2   0.090000        1.0079           0
   18060 O1   42   DMPC C36  CTL2  -0.180000       12.0107           0
   18061 O1   42   DMPC H6X  HAL2   0.090000        1.0079           0
   18062 O1   42   DMPC H6Y  HAL2   0.090000        1.0079           0
   18063 O1   42   DMPC C37  CTL2  -0.180000       12.0107           0
   18064 O1   42   DMPC H7X  HAL2   0.090000        1.0079           0
   18065 O1   42   DMPC H7Y  HAL2   0.090000        1.0079           0
   18066 O1   42   DMPC C38  CTL2  -0.180000       12.0107           0
   18067 O1   42   DMPC H8X  HAL2   0.090000        1.0079           0
   18068 O1   42   DMPC H8Y  HAL2   0.090000        1.0079           0
   18069 O1   42   DMPC C39  CTL2  -0.180000       12.0107           0
   18070 O1   42   DMPC H9X  HAL2   0.090000        1.0079           0
   18071 O1   42   DMPC H9Y  HAL2   0.090000        1.0079           0
   18072 O1   42   DMPC C310 CTL2  -0.180000       12.0107           0
   18073 O1   42   DMPC H10X HAL2   0.090000        1.0079           0
   18074 O1   42   DMPC H10Y HAL2   0.090000        1.0079           0
   18075 O1   42   DMPC C311 CTL2  -0.180000       12.0107           0
   18076 O1   42   DMPC H11X HAL2   0.090000        1.0079           0
   18077 O1   42   DMPC H11Y HAL2   0.090000        1.0079           0
   18078 O1   42   DMPC C312 CTL2  -0.180000       12.0107           0
   18079 O1   42   DMPC H12X HAL2   0.090000        1.0079           0
   18080 O1   42   DMPC H12Y HAL2   0.090000        1.0079           0
   18081 O1   42   DMPC C313 CTL2  -0.180000       12.0107           0
   18082 O1   42   DMPC H13X HAL2   0.090000        1.0079           0
   18083 O1   42   DMPC H13Y HAL2   0.090000        1.0079           0
   18084 O1   42   DMPC C314 CTL3  -0.270000       12.0107           0
   18085 O1   42   DMPC H14X HAL3   0.090000        1.0079           0
   18086 O1   42   DMPC H14Y HAL3   0.090000        1.0079           0
   18087 O1   42   DMPC H14Z HAL3   0.090000        1.0079           0
   18088 O1   43   DMPC N    NTL   -0.600000       14.0067           0
   18089 O1   43   DMPC C13  CTL5  -0.350000       12.0107           0
   18090 O1   43   DMPC H13A HL     0.250000        1.0079           0
   18091 O1   43   DMPC H13B HL     0.250000        1.0079           0
   18092 O1   43   DMPC H13C HL     0.250000        1.0079           0
   18093 O1   43   DMPC C14  CTL5  -0.350000       12.0107           0
   18094 O1   43   DMPC H14A HL     0.250000        1.0079           0
   18095 O1   43   DMPC H14B HL     0.250000        1.0079           0
   18096 O1   43   DMPC H14C HL     0.250000        1.0079           0
   18097 O1   43   DMPC C15  CTL5  -0.350000       12.0107           0
   18098 O1   43   DMPC H15A HL     0.250000        1.0079           0
   18099 O1   43   DMPC H15B HL     0.250000        1.0079           0
   18100 O1   43   DMPC H15C HL     0.250000        1.0079           0
   18101 O1   43   DMPC C12  CTL2  -0.100000       12.0107           0
   18102 O1   43   DMPC H12A HL     0.250000        1.0079           0
   18103 O1   43   DMPC H12B HL     0.250000        1.0079           0
   18104 O1   43   DMPC C11  CTL2  -0.080000       12.0107           0
   18105 O1   43   DMPC H11A HAL2   0.090000        1.0079           0
   18106 O1   43   DMPC H11B HAL2   0.090000        1.0079           0
   18107 O1   43   DMPC P    PL     1.500000       30.9738           0
   18108 O1   43   DMPC O13  O2L   -0.780000       15.9994           0
   18109 O1   43   DMPC O14  O2L   -0.780000       15.9994           0
   18110 O1   43   DMPC O11  OSLP  -0.570000       15.9994           0
   18111 O1   43   DMPC O12  OSLP  -0.570000       15.9994           0
   18112 O1   43   DMPC C1   CTL2  -0.080000       12.0107           0
   18113 O1   43   DMPC HA   HAL2   0.090000        1.0079           0
   18114 O1   43   DMPC HB   HAL2   0.090000        1.0079           0
   18115 O1   43   DMPC C2   CTL1   0.170000       12.0107           0
   18116 O1   43   DMPC HS   HAL1   0.090000        1.0079           0
   18117 O1   43   DMPC O21  OSL   -0.490000       15.9994           0
   18118 O1   43   DMPC C21  CL     0.900000       12.0107           0
   18119 O1   43   DMPC O22  OBL   -0.630000       15.9994           0
   18120 O1   43   DMPC C22  CTL2  -0.220000       12.0107           0
   18121 O1   43   DMPC H2R  HAL2   0.090000        1.0079           0
   18122 O1   43   DMPC H2S  HAL2   0.090000        1.0079           0
   18123 O1   43   DMPC C3   CTL2   0.080000       12.0107           0
   18124 O1   43   DMPC HX   HAL2   0.090000        1.0079           0
   18125 O1   43   DMPC HY   HAL2   0.090000        1.0079           0
   18126 O1   43   DMPC O31  OSL   -0.490000       15.9994           0
   18127 O1   43   DMPC C31  CL     0.900000       12.0107           0
   18128 O1   43   DMPC O32  OBL   -0.630000       15.9994           0
   18129 O1   43   DMPC C32  CTL2  -0.220000       12.0107           0
   18130 O1   43   DMPC H2X  HAL2   0.090000        1.0079           0
   18131 O1   43   DMPC H2Y  HAL2   0.090000        1.0079           0
   18132 O1   43   DMPC C23  CTL2  -0.180000       12.0107           0
   18133 O1   43   DMPC H3R  HAL2   0.090000        1.0079           0
   18134 O1   43   DMPC H3S  HAL2   0.090000        1.0079           0
   18135 O1   43   DMPC C24  CTL2  -0.180000       12.0107           0
   18136 O1   43   DMPC H4R  HAL2   0.090000        1.0079           0
   18137 O1   43   DMPC H4S  HAL2   0.090000        1.0079           0
   18138 O1   43   DMPC C25  CTL2  -0.180000       12.0107           0
   18139 O1   43   DMPC H5R  HAL2   0.090000        1.0079           0
   18140 O1   43   DMPC H5S  HAL2   0.090000        1.0079           0
   18141 O1   43   DMPC C26  CTL2  -0.180000       12.0107           0
   18142 O1   43   DMPC H6R  HAL2   0.090000        1.0079           0
   18143 O1   43   DMPC H6S  HAL2   0.090000        1.0079           0
   18144 O1   43   DMPC C27  CTL2  -0.180000       12.0107           0
   18145 O1   43   DMPC H7R  HAL2   0.090000        1.0079           0
   18146 O1   43   DMPC H7S  HAL2   0.090000        1.0079           0
   18147 O1   43   DMPC C28  CTL2  -0.180000       12.0107           0
   18148 O1   43   DMPC H8R  HAL2   0.090000        1.0079           0
   18149 O1   43   DMPC H8S  HAL2   0.090000        1.0079           0
   18150 O1   43   DMPC C29  CTL2  -0.180000       12.0107           0
   18151 O1   43   DMPC H9R  HAL2   0.090000        1.0079           0
   18152 O1   43   DMPC H9S  HAL2   0.090000        1.0079           0
   18153 O1   43   DMPC C210 CTL2  -0.180000       12.0107           0
   18154 O1   43   DMPC H10R HAL2   0.090000        1.0079           0
   18155 O1   43   DMPC H10S HAL2   0.090000        1.0079           0
   18156 O1   43   DMPC C211 CTL2  -0.180000       12.0107           0
   18157 O1   43   DMPC H11R HAL2   0.090000        1.0079           0
   18158 O1   43   DMPC H11S HAL2   0.090000        1.0079           0
   18159 O1   43   DMPC C212 CTL2  -0.180000       12.0107           0
   18160 O1   43   DMPC H12R HAL2   0.090000        1.0079           0
   18161 O1   43   DMPC H12S HAL2   0.090000        1.0079           0
   18162 O1   43   DMPC C213 CTL2  -0.180000       12.0107           0
   18163 O1   43   DMPC H13R HAL2   0.090000        1.0079           0
   18164 O1   43   DMPC H13S HAL2   0.090000        1.0079           0
   18165 O1   43   DMPC C214 CTL3  -0.270000       12.0107           0
   18166 O1   43   DMPC H14R HAL3   0.090000        1.0079           0
   18167 O1   43   DMPC H14S HAL3   0.090000        1.0079           0
   18168 O1   43   DMPC H14T HAL3   0.090000        1.0079           0
   18169 O1   43   DMPC C33  CTL2  -0.180000       12.0107           0
   18170 O1   43   DMPC H3X  HAL2   0.090000        1.0079           0
   18171 O1   43   DMPC H3Y  HAL2   0.090000        1.0079           0
   18172 O1   43   DMPC C34  CTL2  -0.180000       12.0107           0
   18173 O1   43   DMPC H4X  HAL2   0.090000        1.0079           0
   18174 O1   43   DMPC H4Y  HAL2   0.090000        1.0079           0
   18175 O1   43   DMPC C35  CTL2  -0.180000       12.0107           0
   18176 O1   43   DMPC H5X  HAL2   0.090000        1.0079           0
   18177 O1   43   DMPC H5Y  HAL2   0.090000        1.0079           0
   18178 O1   43   DMPC C36  CTL2  -0.180000       12.0107           0
   18179 O1   43   DMPC H6X  HAL2   0.090000        1.0079           0
   18180 O1   43   DMPC H6Y  HAL2   0.090000        1.0079           0
   18181 O1   43   DMPC C37  CTL2  -0.180000       12.0107           0
   18182 O1   43   DMPC H7X  HAL2   0.090000        1.0079           0
   18183 O1   43   DMPC H7Y  HAL2   0.090000        1.0079           0
   18184 O1   43   DMPC C38  CTL2  -0.180000       12.0107           0
   18185 O1   43   DMPC H8X  HAL2   0.090000        1.0079           0
   18186 O1   43   DMPC H8Y  HAL2   0.090000        1.0079           0
   18187 O1   43   DMPC C39  CTL2  -0.180000       12.0107           0
   18188 O1   43   DMPC H9X  HAL2   0.090000        1.0079           0
   18189 O1   43   DMPC H9Y  HAL2   0.090000        1.0079           0
   18190 O1   43   DMPC C310 CTL2  -0.180000       12.0107           0
   18191 O1   43   DMPC H10X HAL2   0.090000        1.0079           0
   18192 O1   43   DMPC H10Y HAL2   0.090000        1.0079           0
   18193 O1   43   DMPC C311 CTL2  -0.180000       12.0107           0
   18194 O1   43   DMPC H11X HAL2   0.090000        1.0079           0
   18195 O1   43   DMPC H11Y HAL2   0.090000        1.0079           0
   18196 O1   43   DMPC C312 CTL2  -0.180000       12.0107           0
   18197 O1   43   DMPC H12X HAL2   0.090000        1.0079           0
   18198 O1   43   DMPC H12Y HAL2   0.090000        1.0079           0
   18199 O1   43   DMPC C313 CTL2  -0.180000       12.0107           0
   18200 O1   43   DMPC H13X HAL2   0.090000        1.0079           0
   18201 O1   43   DMPC H13Y HAL2   0.090000        1.0079           0
   18202 O1   43   DMPC C314 CTL3  -0.270000       12.0107           0
   18203 O1   43   DMPC H14X HAL3   0.090000        1.0079           0
   18204 O1   43   DMPC H14Y HAL3   0.090000        1.0079           0
   18205 O1   43   DMPC H14Z HAL3   0.090000        1.0079           0
   18206 O1   44   DMPC N    NTL   -0.600000       14.0067           0
   18207 O1   44   DMPC C13  CTL5  -0.350000       12.0107           0
   18208 O1   44   DMPC H13A HL     0.250000        1.0079           0
   18209 O1   44   DMPC H13B HL     0.250000        1.0079           0
   18210 O1   44   DMPC H13C HL     0.250000        1.0079           0
   18211 O1   44   DMPC C14  CTL5  -0.350000       12.0107           0
   18212 O1   44   DMPC H14A HL     0.250000        1.0079           0
   18213 O1   44   DMPC H14B HL     0.250000        1.0079           0
   18214 O1   44   DMPC H14C HL     0.250000        1.0079           0
   18215 O1   44   DMPC C15  CTL5  -0.350000       12.0107           0
   18216 O1   44   DMPC H15A HL     0.250000        1.0079           0
   18217 O1   44   DMPC H15B HL     0.250000        1.0079           0
   18218 O1   44   DMPC H15C HL     0.250000        1.0079           0
   18219 O1   44   DMPC C12  CTL2  -0.100000       12.0107           0
   18220 O1   44   DMPC H12A HL     0.250000        1.0079           0
   18221 O1   44   DMPC H12B HL     0.250000        1.0079           0
   18222 O1   44   DMPC C11  CTL2  -0.080000       12.0107           0
   18223 O1   44   DMPC H11A HAL2   0.090000        1.0079           0
   18224 O1   44   DMPC H11B HAL2   0.090000        1.0079           0
   18225 O1   44   DMPC P    PL     1.500000       30.9738           0
   18226 O1   44   DMPC O13  O2L   -0.780000       15.9994           0
   18227 O1   44   DMPC O14  O2L   -0.780000       15.9994           0
   18228 O1   44   DMPC O11  OSLP  -0.570000       15.9994           0
   18229 O1   44   DMPC O12  OSLP  -0.570000       15.9994           0
   18230 O1   44   DMPC C1   CTL2  -0.080000       12.0107           0
   18231 O1   44   DMPC HA   HAL2   0.090000        1.0079           0
   18232 O1   44   DMPC HB   HAL2   0.090000        1.0079           0
   18233 O1   44   DMPC C2   CTL1   0.170000       12.0107           0
   18234 O1   44   DMPC HS   HAL1   0.090000        1.0079           0
   18235 O1   44   DMPC O21  OSL   -0.490000       15.9994           0
   18236 O1   44   DMPC C21  CL     0.900000       12.0107           0
   18237 O1   44   DMPC O22  OBL   -0.630000       15.9994           0
   18238 O1   44   DMPC C22  CTL2  -0.220000       12.0107           0
   18239 O1   44   DMPC H2R  HAL2   0.090000        1.0079           0
   18240 O1   44   DMPC H2S  HAL2   0.090000        1.0079           0
   18241 O1   44   DMPC C3   CTL2   0.080000       12.0107           0
   18242 O1   44   DMPC HX   HAL2   0.090000        1.0079           0
   18243 O1   44   DMPC HY   HAL2   0.090000        1.0079           0
   18244 O1   44   DMPC O31  OSL   -0.490000       15.9994           0
   18245 O1   44   DMPC C31  CL     0.900000       12.0107           0
   18246 O1   44   DMPC O32  OBL   -0.630000       15.9994           0
   18247 O1   44   DMPC C32  CTL2  -0.220000       12.0107           0
   18248 O1   44   DMPC H2X  HAL2   0.090000        1.0079           0
   18249 O1   44   DMPC H2Y  HAL2   0.090000        1.0079           0
   18250 O1   44   DMPC C23  CTL2  -0.180000       12.0107           0
   18251 O1   44   DMPC H3R  HAL2   0.090000        1.0079           0
   18252 O1   44   DMPC H3S  HAL2   0.090000        1.0079           0
   18253 O1   44   DMPC C24  CTL2  -0.180000       12.0107           0
   18254 O1   44   DMPC H4R  HAL2   0.090000        1.0079           0
   18255 O1   44   DMPC H4S  HAL2   0.090000        1.0079           0
   18256 O1   44   DMPC C25  CTL2  -0.180000       12.0107           0
   18257 O1   44   DMPC H5R  HAL2   0.090000        1.0079           0
   18258 O1   44   DMPC H5S  HAL2   0.090000        1.0079           0
   18259 O1   44   DMPC C26  CTL2  -0.180000       12.0107           0
   18260 O1   44   DMPC H6R  HAL2   0.090000        1.0079           0
   18261 O1   44   DMPC H6S  HAL2   0.090000        1.0079           0
   18262 O1   44   DMPC C27  CTL2  -0.180000       12.0107           0
   18263 O1   44   DMPC H7R  HAL2   0.090000        1.0079           0
   18264 O1   44   DMPC H7S  HAL2   0.090000        1.0079           0
   18265 O1   44   DMPC C28  CTL2  -0.180000       12.0107           0
   18266 O1   44   DMPC H8R  HAL2   0.090000        1.0079           0
   18267 O1   44   DMPC H8S  HAL2   0.090000        1.0079           0
   18268 O1   44   DMPC C29  CTL2  -0.180000       12.0107           0
   18269 O1   44   DMPC H9R  HAL2   0.090000        1.0079           0
   18270 O1   44   DMPC H9S  HAL2   0.090000        1.0079           0
   18271 O1   44   DMPC C210 CTL2  -0.180000       12.0107           0
   18272 O1   44   DMPC H10R HAL2   0.090000        1.0079           0
   18273 O1   44   DMPC H10S HAL2   0.090000        1.0079           0
   18274 O1   44   DMPC C211 CTL2  -0.180000       12.0107           0
   18275 O1   44   DMPC H11R HAL2   0.090000        1.0079           0
   18276 O1   44   DMPC H11S HAL2   0.090000        1.0079           0
   18277 O1   44   DMPC C212 CTL2  -0.180000       12.0107           0
   18278 O1   44   DMPC H12R HAL2   0.090000        1.0079           0
   18279 O1   44   DMPC H12S HAL2   0.090000        1.0079           0
   18280 O1   44   DMPC C213 CTL2  -0.180000       12.0107           0
   18281 O1   44   DMPC H13R HAL2   0.090000        1.0079           0
   18282 O1   44   DMPC H13S HAL2   0.090000        1.0079           0
   18283 O1   44   DMPC C214 CTL3  -0.270000       12.0107           0
   18284 O1   44   DMPC H14R HAL3   0.090000        1.0079           0
   18285 O1   44   DMPC H14S HAL3   0.090000        1.0079           0
   18286 O1   44   DMPC H14T HAL3   0.090000        1.0079           0
   18287 O1   44   DMPC C33  CTL2  -0.180000       12.0107           0
   18288 O1   44   DMPC H3X  HAL2   0.090000        1.0079           0
   18289 O1   44   DMPC H3Y  HAL2   0.090000        1.0079           0
   18290 O1   44   DMPC C34  CTL2  -0.180000       12.0107           0
   18291 O1   44   DMPC H4X  HAL2   0.090000        1.0079           0
   18292 O1   44   DMPC H4Y  HAL2   0.090000        1.0079           0
   18293 O1   44   DMPC C35  CTL2  -0.180000       12.0107           0
   18294 O1   44   DMPC H5X  HAL2   0.090000        1.0079           0
   18295 O1   44   DMPC H5Y  HAL2   0.090000        1.0079           0
   18296 O1   44   DMPC C36  CTL2  -0.180000       12.0107           0
   18297 O1   44   DMPC H6X  HAL2   0.090000        1.0079           0
   18298 O1   44   DMPC H6Y  HAL2   0.090000        1.0079           0
   18299 O1   44   DMPC C37  CTL2  -0.180000       12.0107           0
   18300 O1   44   DMPC H7X  HAL2   0.090000        1.0079           0
   18301 O1   44   DMPC H7Y  HAL2   0.090000        1.0079           0
   18302 O1   44   DMPC C38  CTL2  -0.180000       12.0107           0
   18303 O1   44   DMPC H8X  HAL2   0.090000        1.0079           0
   18304 O1   44   DMPC H8Y  HAL2   0.090000        1.0079           0
   18305 O1   44   DMPC C39  CTL2  -0.180000       12.0107           0
   18306 O1   44   DMPC H9X  HAL2   0.090000        1.0079           0
   18307 O1   44   DMPC H9Y  HAL2   0.090000        1.0079           0
   18308 O1   44   DMPC C310 CTL2  -0.180000       12.0107           0
   18309 O1   44   DMPC H10X HAL2   0.090000        1.0079           0
   18310 O1   44   DMPC H10Y HAL2   0.090000        1.0079           0
   18311 O1   44   DMPC C311 CTL2  -0.180000       12.0107           0
   18312 O1   44   DMPC H11X HAL2   0.090000        1.0079           0
   18313 O1   44   DMPC H11Y HAL2   0.090000        1.0079           0
   18314 O1   44   DMPC C312 CTL2  -0.180000       12.0107           0
   18315 O1   44   DMPC H12X HAL2   0.090000        1.0079           0
   18316 O1   44   DMPC H12Y HAL2   0.090000        1.0079           0
   18317 O1   44   DMPC C313 CTL2  -0.180000       12.0107           0
   18318 O1   44   DMPC H13X HAL2   0.090000        1.0079           0
   18319 O1   44   DMPC H13Y HAL2   0.090000        1.0079           0
   18320 O1   44   DMPC C314 CTL3  -0.270000       12.0107           0
   18321 O1   44   DMPC H14X HAL3   0.090000        1.0079           0
   18322 O1   44   DMPC H14Y HAL3   0.090000        1.0079           0
   18323 O1   44   DMPC H14Z HAL3   0.090000        1.0079           0
   18324 O1   45   DMPC N    NTL   -0.600000       14.0067           0
   18325 O1   45   DMPC C13  CTL5  -0.350000       12.0107           0
   18326 O1   45   DMPC H13A HL     0.250000        1.0079           0
   18327 O1   45   DMPC H13B HL     0.250000        1.0079           0
   18328 O1   45   DMPC H13C HL     0.250000        1.0079           0
   18329 O1   45   DMPC C14  CTL5  -0.350000       12.0107           0
   18330 O1   45   DMPC H14A HL     0.250000        1.0079           0
   18331 O1   45   DMPC H14B HL     0.250000        1.0079           0
   18332 O1   45   DMPC H14C HL     0.250000        1.0079           0
   18333 O1   45   DMPC C15  CTL5  -0.350000       12.0107           0
   18334 O1   45   DMPC H15A HL     0.250000        1.0079           0
   18335 O1   45   DMPC H15B HL     0.250000        1.0079           0
   18336 O1   45   DMPC H15C HL     0.250000        1.0079           0
   18337 O1   45   DMPC C12  CTL2  -0.100000       12.0107           0
   18338 O1   45   DMPC H12A HL     0.250000        1.0079           0
   18339 O1   45   DMPC H12B HL     0.250000        1.0079           0
   18340 O1   45   DMPC C11  CTL2  -0.080000       12.0107           0
   18341 O1   45   DMPC H11A HAL2   0.090000        1.0079           0
   18342 O1   45   DMPC H11B HAL2   0.090000        1.0079           0
   18343 O1   45   DMPC P    PL     1.500000       30.9738           0
   18344 O1   45   DMPC O13  O2L   -0.780000       15.9994           0
   18345 O1   45   DMPC O14  O2L   -0.780000       15.9994           0
   18346 O1   45   DMPC O11  OSLP  -0.570000       15.9994           0
   18347 O1   45   DMPC O12  OSLP  -0.570000       15.9994           0
   18348 O1   45   DMPC C1   CTL2  -0.080000       12.0107           0
   18349 O1   45   DMPC HA   HAL2   0.090000        1.0079           0
   18350 O1   45   DMPC HB   HAL2   0.090000        1.0079           0
   18351 O1   45   DMPC C2   CTL1   0.170000       12.0107           0
   18352 O1   45   DMPC HS   HAL1   0.090000        1.0079           0
   18353 O1   45   DMPC O21  OSL   -0.490000       15.9994           0
   18354 O1   45   DMPC C21  CL     0.900000       12.0107           0
   18355 O1   45   DMPC O22  OBL   -0.630000       15.9994           0
   18356 O1   45   DMPC C22  CTL2  -0.220000       12.0107           0
   18357 O1   45   DMPC H2R  HAL2   0.090000        1.0079           0
   18358 O1   45   DMPC H2S  HAL2   0.090000        1.0079           0
   18359 O1   45   DMPC C3   CTL2   0.080000       12.0107           0
   18360 O1   45   DMPC HX   HAL2   0.090000        1.0079           0
   18361 O1   45   DMPC HY   HAL2   0.090000        1.0079           0
   18362 O1   45   DMPC O31  OSL   -0.490000       15.9994           0
   18363 O1   45   DMPC C31  CL     0.900000       12.0107           0
   18364 O1   45   DMPC O32  OBL   -0.630000       15.9994           0
   18365 O1   45   DMPC C32  CTL2  -0.220000       12.0107           0
   18366 O1   45   DMPC H2X  HAL2   0.090000        1.0079           0
   18367 O1   45   DMPC H2Y  HAL2   0.090000        1.0079           0
   18368 O1   45   DMPC C23  CTL2  -0.180000       12.0107           0
   18369 O1   45   DMPC H3R  HAL2   0.090000        1.0079           0
   18370 O1   45   DMPC H3S  HAL2   0.090000        1.0079           0
   18371 O1   45   DMPC C24  CTL2  -0.180000       12.0107           0
   18372 O1   45   DMPC H4R  HAL2   0.090000        1.0079           0
   18373 O1   45   DMPC H4S  HAL2   0.090000        1.0079           0
   18374 O1   45   DMPC C25  CTL2  -0.180000       12.0107           0
   18375 O1   45   DMPC H5R  HAL2   0.090000        1.0079           0
   18376 O1   45   DMPC H5S  HAL2   0.090000        1.0079           0
   18377 O1   45   DMPC C26  CTL2  -0.180000       12.0107           0
   18378 O1   45   DMPC H6R  HAL2   0.090000        1.0079           0
   18379 O1   45   DMPC H6S  HAL2   0.090000        1.0079           0
   18380 O1   45   DMPC C27  CTL2  -0.180000       12.0107           0
   18381 O1   45   DMPC H7R  HAL2   0.090000        1.0079           0
   18382 O1   45   DMPC H7S  HAL2   0.090000        1.0079           0
   18383 O1   45   DMPC C28  CTL2  -0.180000       12.0107           0
   18384 O1   45   DMPC H8R  HAL2   0.090000        1.0079           0
   18385 O1   45   DMPC H8S  HAL2   0.090000        1.0079           0
   18386 O1   45   DMPC C29  CTL2  -0.180000       12.0107           0
   18387 O1   45   DMPC H9R  HAL2   0.090000        1.0079           0
   18388 O1   45   DMPC H9S  HAL2   0.090000        1.0079           0
   18389 O1   45   DMPC C210 CTL2  -0.180000       12.0107           0
   18390 O1   45   DMPC H10R HAL2   0.090000        1.0079           0
   18391 O1   45   DMPC H10S HAL2   0.090000        1.0079           0
   18392 O1   45   DMPC C211 CTL2  -0.180000       12.0107           0
   18393 O1   45   DMPC H11R HAL2   0.090000        1.0079           0
   18394 O1   45   DMPC H11S HAL2   0.090000        1.0079           0
   18395 O1   45   DMPC C212 CTL2  -0.180000       12.0107           0
   18396 O1   45   DMPC H12R HAL2   0.090000        1.0079           0
   18397 O1   45   DMPC H12S HAL2   0.090000        1.0079           0
   18398 O1   45   DMPC C213 CTL2  -0.180000       12.0107           0
   18399 O1   45   DMPC H13R HAL2   0.090000        1.0079           0
   18400 O1   45   DMPC H13S HAL2   0.090000        1.0079           0
   18401 O1   45   DMPC C214 CTL3  -0.270000       12.0107           0
   18402 O1   45   DMPC H14R HAL3   0.090000        1.0079           0
   18403 O1   45   DMPC H14S HAL3   0.090000        1.0079           0
   18404 O1   45   DMPC H14T HAL3   0.090000        1.0079           0
   18405 O1   45   DMPC C33  CTL2  -0.180000       12.0107           0
   18406 O1   45   DMPC H3X  HAL2   0.090000        1.0079           0
   18407 O1   45   DMPC H3Y  HAL2   0.090000        1.0079           0
   18408 O1   45   DMPC C34  CTL2  -0.180000       12.0107           0
   18409 O1   45   DMPC H4X  HAL2   0.090000        1.0079           0
   18410 O1   45   DMPC H4Y  HAL2   0.090000        1.0079           0
   18411 O1   45   DMPC C35  CTL2  -0.180000       12.0107           0
   18412 O1   45   DMPC H5X  HAL2   0.090000        1.0079           0
   18413 O1   45   DMPC H5Y  HAL2   0.090000        1.0079           0
   18414 O1   45   DMPC C36  CTL2  -0.180000       12.0107           0
   18415 O1   45   DMPC H6X  HAL2   0.090000        1.0079           0
   18416 O1   45   DMPC H6Y  HAL2   0.090000        1.0079           0
   18417 O1   45   DMPC C37  CTL2  -0.180000       12.0107           0
   18418 O1   45   DMPC H7X  HAL2   0.090000        1.0079           0
   18419 O1   45   DMPC H7Y  HAL2   0.090000        1.0079           0
   18420 O1   45   DMPC C38  CTL2  -0.180000       12.0107           0
   18421 O1   45   DMPC H8X  HAL2   0.090000        1.0079           0
   18422 O1   45   DMPC H8Y  HAL2   0.090000        1.0079           0
   18423 O1   45   DMPC C39  CTL2  -0.180000       12.0107           0
   18424 O1   45   DMPC H9X  HAL2   0.090000        1.0079           0
   18425 O1   45   DMPC H9Y  HAL2   0.090000        1.0079           0
   18426 O1   45   DMPC C310 CTL2  -0.180000       12.0107           0
   18427 O1   45   DMPC H10X HAL2   0.090000        1.0079           0
   18428 O1   45   DMPC H10Y HAL2   0.090000        1.0079           0
   18429 O1   45   DMPC C311 CTL2  -0.180000       12.0107           0
   18430 O1   45   DMPC H11X HAL2   0.090000        1.0079           0
   18431 O1   45   DMPC H11Y HAL2   0.090000        1.0079           0
   18432 O1   45   DMPC C312 CTL2  -0.180000       12.0107           0
   18433 O1   45   DMPC H12X HAL2   0.090000        1.0079           0
   18434 O1   45   DMPC H12Y HAL2   0.090000        1.0079           0
   18435 O1   45   DMPC C313 CTL2  -0.180000       12.0107           0
   18436 O1   45   DMPC H13X HAL2   0.090000        1.0079           0
   18437 O1   45   DMPC H13Y HAL2   0.090000        1.0079           0
   18438 O1   45   DMPC C314 CTL3  -0.270000       12.0107           0
   18439 O1   45   DMPC H14X HAL3   0.090000        1.0079           0
   18440 O1   45   DMPC H14Y HAL3   0.090000        1.0079           0
   18441 O1   45   DMPC H14Z HAL3   0.090000        1.0079           0
   18442 O1   46   DMPC N    NTL   -0.600000       14.0067           0
   18443 O1   46   DMPC C13  CTL5  -0.350000       12.0107           0
   18444 O1   46   DMPC H13A HL     0.250000        1.0079           0
   18445 O1   46   DMPC H13B HL     0.250000        1.0079           0
   18446 O1   46   DMPC H13C HL     0.250000        1.0079           0
   18447 O1   46   DMPC C14  CTL5  -0.350000       12.0107           0
   18448 O1   46   DMPC H14A HL     0.250000        1.0079           0
   18449 O1   46   DMPC H14B HL     0.250000        1.0079           0
   18450 O1   46   DMPC H14C HL     0.250000        1.0079           0
   18451 O1   46   DMPC C15  CTL5  -0.350000       12.0107           0
   18452 O1   46   DMPC H15A HL     0.250000        1.0079           0
   18453 O1   46   DMPC H15B HL     0.250000        1.0079           0
   18454 O1   46   DMPC H15C HL     0.250000        1.0079           0
   18455 O1   46   DMPC C12  CTL2  -0.100000       12.0107           0
   18456 O1   46   DMPC H12A HL     0.250000        1.0079           0
   18457 O1   46   DMPC H12B HL     0.250000        1.0079           0
   18458 O1   46   DMPC C11  CTL2  -0.080000       12.0107           0
   18459 O1   46   DMPC H11A HAL2   0.090000        1.0079           0
   18460 O1   46   DMPC H11B HAL2   0.090000        1.0079           0
   18461 O1   46   DMPC P    PL     1.500000       30.9738           0
   18462 O1   46   DMPC O13  O2L   -0.780000       15.9994           0
   18463 O1   46   DMPC O14  O2L   -0.780000       15.9994           0
   18464 O1   46   DMPC O11  OSLP  -0.570000       15.9994           0
   18465 O1   46   DMPC O12  OSLP  -0.570000       15.9994           0
   18466 O1   46   DMPC C1   CTL2  -0.080000       12.0107           0
   18467 O1   46   DMPC HA   HAL2   0.090000        1.0079           0
   18468 O1   46   DMPC HB   HAL2   0.090000        1.0079           0
   18469 O1   46   DMPC C2   CTL1   0.170000       12.0107           0
   18470 O1   46   DMPC HS   HAL1   0.090000        1.0079           0
   18471 O1   46   DMPC O21  OSL   -0.490000       15.9994           0
   18472 O1   46   DMPC C21  CL     0.900000       12.0107           0
   18473 O1   46   DMPC O22  OBL   -0.630000       15.9994           0
   18474 O1   46   DMPC C22  CTL2  -0.220000       12.0107           0
   18475 O1   46   DMPC H2R  HAL2   0.090000        1.0079           0
   18476 O1   46   DMPC H2S  HAL2   0.090000        1.0079           0
   18477 O1   46   DMPC C3   CTL2   0.080000       12.0107           0
   18478 O1   46   DMPC HX   HAL2   0.090000        1.0079           0
   18479 O1   46   DMPC HY   HAL2   0.090000        1.0079           0
   18480 O1   46   DMPC O31  OSL   -0.490000       15.9994           0
   18481 O1   46   DMPC C31  CL     0.900000       12.0107           0
   18482 O1   46   DMPC O32  OBL   -0.630000       15.9994           0
   18483 O1   46   DMPC C32  CTL2  -0.220000       12.0107           0
   18484 O1   46   DMPC H2X  HAL2   0.090000        1.0079           0
   18485 O1   46   DMPC H2Y  HAL2   0.090000        1.0079           0
   18486 O1   46   DMPC C23  CTL2  -0.180000       12.0107           0
   18487 O1   46   DMPC H3R  HAL2   0.090000        1.0079           0
   18488 O1   46   DMPC H3S  HAL2   0.090000        1.0079           0
   18489 O1   46   DMPC C24  CTL2  -0.180000       12.0107           0
   18490 O1   46   DMPC H4R  HAL2   0.090000        1.0079           0
   18491 O1   46   DMPC H4S  HAL2   0.090000        1.0079           0
   18492 O1   46   DMPC C25  CTL2  -0.180000       12.0107           0
   18493 O1   46   DMPC H5R  HAL2   0.090000        1.0079           0
   18494 O1   46   DMPC H5S  HAL2   0.090000        1.0079           0
   18495 O1   46   DMPC C26  CTL2  -0.180000       12.0107           0
   18496 O1   46   DMPC H6R  HAL2   0.090000        1.0079           0
   18497 O1   46   DMPC H6S  HAL2   0.090000        1.0079           0
   18498 O1   46   DMPC C27  CTL2  -0.180000       12.0107           0
   18499 O1   46   DMPC H7R  HAL2   0.090000        1.0079           0
   18500 O1   46   DMPC H7S  HAL2   0.090000        1.0079           0
   18501 O1   46   DMPC C28  CTL2  -0.180000       12.0107           0
   18502 O1   46   DMPC H8R  HAL2   0.090000        1.0079           0
   18503 O1   46   DMPC H8S  HAL2   0.090000        1.0079           0
   18504 O1   46   DMPC C29  CTL2  -0.180000       12.0107           0
   18505 O1   46   DMPC H9R  HAL2   0.090000        1.0079           0
   18506 O1   46   DMPC H9S  HAL2   0.090000        1.0079           0
   18507 O1   46   DMPC C210 CTL2  -0.180000       12.0107           0
   18508 O1   46   DMPC H10R HAL2   0.090000        1.0079           0
   18509 O1   46   DMPC H10S HAL2   0.090000        1.0079           0
   18510 O1   46   DMPC C211 CTL2  -0.180000       12.0107           0
   18511 O1   46   DMPC H11R HAL2   0.090000        1.0079           0
   18512 O1   46   DMPC H11S HAL2   0.090000        1.0079           0
   18513 O1   46   DMPC C212 CTL2  -0.180000       12.0107           0
   18514 O1   46   DMPC H12R HAL2   0.090000        1.0079           0
   18515 O1   46   DMPC H12S HAL2   0.090000        1.0079           0
   18516 O1   46   DMPC C213 CTL2  -0.180000       12.0107           0
   18517 O1   46   DMPC H13R HAL2   0.090000        1.0079           0
   18518 O1   46   DMPC H13S HAL2   0.090000        1.0079           0
   18519 O1   46   DMPC C214 CTL3  -0.270000       12.0107           0
   18520 O1   46   DMPC H14R HAL3   0.090000        1.0079           0
   18521 O1   46   DMPC H14S HAL3   0.090000        1.0079           0
   18522 O1   46   DMPC H14T HAL3   0.090000        1.0079           0
   18523 O1   46   DMPC C33  CTL2  -0.180000       12.0107           0
   18524 O1   46   DMPC H3X  HAL2   0.090000        1.0079           0
   18525 O1   46   DMPC H3Y  HAL2   0.090000        1.0079           0
   18526 O1   46   DMPC C34  CTL2  -0.180000       12.0107           0
   18527 O1   46   DMPC H4X  HAL2   0.090000        1.0079           0
   18528 O1   46   DMPC H4Y  HAL2   0.090000        1.0079           0
   18529 O1   46   DMPC C35  CTL2  -0.180000       12.0107           0
   18530 O1   46   DMPC H5X  HAL2   0.090000        1.0079           0
   18531 O1   46   DMPC H5Y  HAL2   0.090000        1.0079           0
   18532 O1   46   DMPC C36  CTL2  -0.180000       12.0107           0
   18533 O1   46   DMPC H6X  HAL2   0.090000        1.0079           0
   18534 O1   46   DMPC H6Y  HAL2   0.090000        1.0079           0
   18535 O1   46   DMPC C37  CTL2  -0.180000       12.0107           0
   18536 O1   46   DMPC H7X  HAL2   0.090000        1.0079           0
   18537 O1   46   DMPC H7Y  HAL2   0.090000        1.0079           0
   18538 O1   46   DMPC C38  CTL2  -0.180000       12.0107           0
   18539 O1   46   DMPC H8X  HAL2   0.090000        1.0079           0
   18540 O1   46   DMPC H8Y  HAL2   0.090000        1.0079           0
   18541 O1   46   DMPC C39  CTL2  -0.180000       12.0107           0
   18542 O1   46   DMPC H9X  HAL2   0.090000        1.0079           0
   18543 O1   46   DMPC H9Y  HAL2   0.090000        1.0079           0
   18544 O1   46   DMPC C310 CTL2  -0.180000       12.0107           0
   18545 O1   46   DMPC H10X HAL2   0.090000        1.0079           0
   18546 O1   46   DMPC H10Y HAL2   0.090000        1.0079           0
   18547 O1   46   DMPC C311 CTL2  -0.180000       12.0107           0
   18548 O1   46   DMPC H11X HAL2   0.090000        1.0079           0
   18549 O1   46   DMPC H11Y HAL2   0.090000        1.0079           0
   18550 O1   46   DMPC C312 CTL2  -0.180000       12.0107           0
   18551 O1   46   DMPC H12X HAL2   0.090000        1.0079           0
   18552 O1   46   DMPC H12Y HAL2   0.090000        1.0079           0
   18553 O1   46   DMPC C313 CTL2  -0.180000       12.0107           0
   18554 O1   46   DMPC H13X HAL2   0.090000        1.0079           0
   18555 O1   46   DMPC H13Y HAL2   0.090000        1.0079           0
   18556 O1   46   DMPC C314 CTL3  -0.270000       12.0107           0
   18557 O1   46   DMPC H14X HAL3   0.090000        1.0079           0
   18558 O1   46   DMPC H14Y HAL3   0.090000        1.0079           0
   18559 O1   46   DMPC H14Z HAL3   0.090000        1.0079           0
   18560 O1   47   DMPC N    NTL   -0.600000       14.0067           0
   18561 O1   47   DMPC C13  CTL5  -0.350000       12.0107           0
   18562 O1   47   DMPC H13A HL     0.250000        1.0079           0
   18563 O1   47   DMPC H13B HL     0.250000        1.0079           0
   18564 O1   47   DMPC H13C HL     0.250000        1.0079           0
   18565 O1   47   DMPC C14  CTL5  -0.350000       12.0107           0
   18566 O1   47   DMPC H14A HL     0.250000        1.0079           0
   18567 O1   47   DMPC H14B HL     0.250000        1.0079           0
   18568 O1   47   DMPC H14C HL     0.250000        1.0079           0
   18569 O1   47   DMPC C15  CTL5  -0.350000       12.0107           0
   18570 O1   47   DMPC H15A HL     0.250000        1.0079           0
   18571 O1   47   DMPC H15B HL     0.250000        1.0079           0
   18572 O1   47   DMPC H15C HL     0.250000        1.0079           0
   18573 O1   47   DMPC C12  CTL2  -0.100000       12.0107           0
   18574 O1   47   DMPC H12A HL     0.250000        1.0079           0
   18575 O1   47   DMPC H12B HL     0.250000        1.0079           0
   18576 O1   47   DMPC C11  CTL2  -0.080000       12.0107           0
   18577 O1   47   DMPC H11A HAL2   0.090000        1.0079           0
   18578 O1   47   DMPC H11B HAL2   0.090000        1.0079           0
   18579 O1   47   DMPC P    PL     1.500000       30.9738           0
   18580 O1   47   DMPC O13  O2L   -0.780000       15.9994           0
   18581 O1   47   DMPC O14  O2L   -0.780000       15.9994           0
   18582 O1   47   DMPC O11  OSLP  -0.570000       15.9994           0
   18583 O1   47   DMPC O12  OSLP  -0.570000       15.9994           0
   18584 O1   47   DMPC C1   CTL2  -0.080000       12.0107           0
   18585 O1   47   DMPC HA   HAL2   0.090000        1.0079           0
   18586 O1   47   DMPC HB   HAL2   0.090000        1.0079           0
   18587 O1   47   DMPC C2   CTL1   0.170000       12.0107           0
   18588 O1   47   DMPC HS   HAL1   0.090000        1.0079           0
   18589 O1   47   DMPC O21  OSL   -0.490000       15.9994           0
   18590 O1   47   DMPC C21  CL     0.900000       12.0107           0
   18591 O1   47   DMPC O22  OBL   -0.630000       15.9994           0
   18592 O1   47   DMPC C22  CTL2  -0.220000       12.0107           0
   18593 O1   47   DMPC H2R  HAL2   0.090000        1.0079           0
   18594 O1   47   DMPC H2S  HAL2   0.090000        1.0079           0
   18595 O1   47   DMPC C3   CTL2   0.080000       12.0107           0
   18596 O1   47   DMPC HX   HAL2   0.090000        1.0079           0
   18597 O1   47   DMPC HY   HAL2   0.090000        1.0079           0
   18598 O1   47   DMPC O31  OSL   -0.490000       15.9994           0
   18599 O1   47   DMPC C31  CL     0.900000       12.0107           0
   18600 O1   47   DMPC O32  OBL   -0.630000       15.9994           0
   18601 O1   47   DMPC C32  CTL2  -0.220000       12.0107           0
   18602 O1   47   DMPC H2X  HAL2   0.090000        1.0079           0
   18603 O1   47   DMPC H2Y  HAL2   0.090000        1.0079           0
   18604 O1   47   DMPC C23  CTL2  -0.180000       12.0107           0
   18605 O1   47   DMPC H3R  HAL2   0.090000        1.0079           0
   18606 O1   47   DMPC H3S  HAL2   0.090000        1.0079           0
   18607 O1   47   DMPC C24  CTL2  -0.180000       12.0107           0
   18608 O1   47   DMPC H4R  HAL2   0.090000        1.0079           0
   18609 O1   47   DMPC H4S  HAL2   0.090000        1.0079           0
   18610 O1   47   DMPC C25  CTL2  -0.180000       12.0107           0
   18611 O1   47   DMPC H5R  HAL2   0.090000        1.0079           0
   18612 O1   47   DMPC H5S  HAL2   0.090000        1.0079           0
   18613 O1   47   DMPC C26  CTL2  -0.180000       12.0107           0
   18614 O1   47   DMPC H6R  HAL2   0.090000        1.0079           0
   18615 O1   47   DMPC H6S  HAL2   0.090000        1.0079           0
   18616 O1   47   DMPC C27  CTL2  -0.180000       12.0107           0
   18617 O1   47   DMPC H7R  HAL2   0.090000        1.0079           0
   18618 O1   47   DMPC H7S  HAL2   0.090000        1.0079           0
   18619 O1   47   DMPC C28  CTL2  -0.180000       12.0107           0
   18620 O1   47   DMPC H8R  HAL2   0.090000        1.0079           0
   18621 O1   47   DMPC H8S  HAL2   0.090000        1.0079           0
   18622 O1   47   DMPC C29  CTL2  -0.180000       12.0107           0
   18623 O1   47   DMPC H9R  HAL2   0.090000        1.0079           0
   18624 O1   47   DMPC H9S  HAL2   0.090000        1.0079           0
   18625 O1   47   DMPC C210 CTL2  -0.180000       12.0107           0
   18626 O1   47   DMPC H10R HAL2   0.090000        1.0079           0
   18627 O1   47   DMPC H10S HAL2   0.090000        1.0079           0
   18628 O1   47   DMPC C211 CTL2  -0.180000       12.0107           0
   18629 O1   47   DMPC H11R HAL2   0.090000        1.0079           0
   18630 O1   47   DMPC H11S HAL2   0.090000        1.0079           0
   18631 O1   47   DMPC C212 CTL2  -0.180000       12.0107           0
   18632 O1   47   DMPC H12R HAL2   0.090000        1.0079           0
   18633 O1   47   DMPC H12S HAL2   0.090000        1.0079           0
   18634 O1   47   DMPC C213 CTL2  -0.180000       12.0107           0
   18635 O1   47   DMPC H13R HAL2   0.090000        1.0079           0
   18636 O1   47   DMPC H13S HAL2   0.090000        1.0079           0
   18637 O1   47   DMPC C214 CTL3  -0.270000       12.0107           0
   18638 O1   47   DMPC H14R HAL3   0.090000        1.0079           0
   18639 O1   47   DMPC H14S HAL3   0.090000        1.0079           0
   18640 O1   47   DMPC H14T HAL3   0.090000        1.0079           0
   18641 O1   47   DMPC C33  CTL2  -0.180000       12.0107           0
   18642 O1   47   DMPC H3X  HAL2   0.090000        1.0079           0
   18643 O1   47   DMPC H3Y  HAL2   0.090000        1.0079           0
   18644 O1   47   DMPC C34  CTL2  -0.180000       12.0107           0
   18645 O1   47   DMPC H4X  HAL2   0.090000        1.0079           0
   18646 O1   47   DMPC H4Y  HAL2   0.090000        1.0079           0
   18647 O1   47   DMPC C35  CTL2  -0.180000       12.0107           0
   18648 O1   47   DMPC H5X  HAL2   0.090000        1.0079           0
   18649 O1   47   DMPC H5Y  HAL2   0.090000        1.0079           0
   18650 O1   47   DMPC C36  CTL2  -0.180000       12.0107           0
   18651 O1   47   DMPC H6X  HAL2   0.090000        1.0079           0
   18652 O1   47   DMPC H6Y  HAL2   0.090000        1.0079           0
   18653 O1   47   DMPC C37  CTL2  -0.180000       12.0107           0
   18654 O1   47   DMPC H7X  HAL2   0.090000        1.0079           0
   18655 O1   47   DMPC H7Y  HAL2   0.090000        1.0079           0
   18656 O1   47   DMPC C38  CTL2  -0.180000       12.0107           0
   18657 O1   47   DMPC H8X  HAL2   0.090000        1.0079           0
   18658 O1   47   DMPC H8Y  HAL2   0.090000        1.0079           0
   18659 O1   47   DMPC C39  CTL2  -0.180000       12.0107           0
   18660 O1   47   DMPC H9X  HAL2   0.090000        1.0079           0
   18661 O1   47   DMPC H9Y  HAL2   0.090000        1.0079           0
   18662 O1   47   DMPC C310 CTL2  -0.180000       12.0107           0
   18663 O1   47   DMPC H10X HAL2   0.090000        1.0079           0
   18664 O1   47   DMPC H10Y HAL2   0.090000        1.0079           0
   18665 O1   47   DMPC C311 CTL2  -0.180000       12.0107           0
   18666 O1   47   DMPC H11X HAL2   0.090000        1.0079           0
   18667 O1   47   DMPC H11Y HAL2   0.090000        1.0079           0
   18668 O1   47   DMPC C312 CTL2  -0.180000       12.0107           0
   18669 O1   47   DMPC H12X HAL2   0.090000        1.0079           0
   18670 O1   47   DMPC H12Y HAL2   0.090000        1.0079           0
   18671 O1   47   DMPC C313 CTL2  -0.180000       12.0107           0
   18672 O1   47   DMPC H13X HAL2   0.090000        1.0079           0
   18673 O1   47   DMPC H13Y HAL2   0.090000        1.0079           0
   18674 O1   47   DMPC C314 CTL3  -0.270000       12.0107           0
   18675 O1   47   DMPC H14X HAL3   0.090000        1.0079           0
   18676 O1   47   DMPC H14Y HAL3   0.090000        1.0079           0
   18677 O1   47   DMPC H14Z HAL3   0.090000        1.0079           0
   18678 O1   48   DMPC N    NTL   -0.600000       14.0067           0
   18679 O1   48   DMPC C13  CTL5  -0.350000       12.0107           0
   18680 O1   48   DMPC H13A HL     0.250000        1.0079           0
   18681 O1   48   DMPC H13B HL     0.250000        1.0079           0
   18682 O1   48   DMPC H13C HL     0.250000        1.0079           0
   18683 O1   48   DMPC C14  CTL5  -0.350000       12.0107           0
   18684 O1   48   DMPC H14A HL     0.250000        1.0079           0
   18685 O1   48   DMPC H14B HL     0.250000        1.0079           0
   18686 O1   48   DMPC H14C HL     0.250000        1.0079           0
   18687 O1   48   DMPC C15  CTL5  -0.350000       12.0107           0
   18688 O1   48   DMPC H15A HL     0.250000        1.0079           0
   18689 O1   48   DMPC H15B HL     0.250000        1.0079           0
   18690 O1   48   DMPC H15C HL     0.250000        1.0079           0
   18691 O1   48   DMPC C12  CTL2  -0.100000       12.0107           0
   18692 O1   48   DMPC H12A HL     0.250000        1.0079           0
   18693 O1   48   DMPC H12B HL     0.250000        1.0079           0
   18694 O1   48   DMPC C11  CTL2  -0.080000       12.0107           0
   18695 O1   48   DMPC H11A HAL2   0.090000        1.0079           0
   18696 O1   48   DMPC H11B HAL2   0.090000        1.0079           0
   18697 O1   48   DMPC P    PL     1.500000       30.9738           0
   18698 O1   48   DMPC O13  O2L   -0.780000       15.9994           0
   18699 O1   48   DMPC O14  O2L   -0.780000       15.9994           0
   18700 O1   48   DMPC O11  OSLP  -0.570000       15.9994           0
   18701 O1   48   DMPC O12  OSLP  -0.570000       15.9994           0
   18702 O1   48   DMPC C1   CTL2  -0.080000       12.0107           0
   18703 O1   48   DMPC HA   HAL2   0.090000        1.0079           0
   18704 O1   48   DMPC HB   HAL2   0.090000        1.0079           0
   18705 O1   48   DMPC C2   CTL1   0.170000       12.0107           0
   18706 O1   48   DMPC HS   HAL1   0.090000        1.0079           0
   18707 O1   48   DMPC O21  OSL   -0.490000       15.9994           0
   18708 O1   48   DMPC C21  CL     0.900000       12.0107           0
   18709 O1   48   DMPC O22  OBL   -0.630000       15.9994           0
   18710 O1   48   DMPC C22  CTL2  -0.220000       12.0107           0
   18711 O1   48   DMPC H2R  HAL2   0.090000        1.0079           0
   18712 O1   48   DMPC H2S  HAL2   0.090000        1.0079           0
   18713 O1   48   DMPC C3   CTL2   0.080000       12.0107           0
   18714 O1   48   DMPC HX   HAL2   0.090000        1.0079           0
   18715 O1   48   DMPC HY   HAL2   0.090000        1.0079           0
   18716 O1   48   DMPC O31  OSL   -0.490000       15.9994           0
   18717 O1   48   DMPC C31  CL     0.900000       12.0107           0
   18718 O1   48   DMPC O32  OBL   -0.630000       15.9994           0
   18719 O1   48   DMPC C32  CTL2  -0.220000       12.0107           0
   18720 O1   48   DMPC H2X  HAL2   0.090000        1.0079           0
   18721 O1   48   DMPC H2Y  HAL2   0.090000        1.0079           0
   18722 O1   48   DMPC C23  CTL2  -0.180000       12.0107           0
   18723 O1   48   DMPC H3R  HAL2   0.090000        1.0079           0
   18724 O1   48   DMPC H3S  HAL2   0.090000        1.0079           0
   18725 O1   48   DMPC C24  CTL2  -0.180000       12.0107           0
   18726 O1   48   DMPC H4R  HAL2   0.090000        1.0079           0
   18727 O1   48   DMPC H4S  HAL2   0.090000        1.0079           0
   18728 O1   48   DMPC C25  CTL2  -0.180000       12.0107           0
   18729 O1   48   DMPC H5R  HAL2   0.090000        1.0079           0
   18730 O1   48   DMPC H5S  HAL2   0.090000        1.0079           0
   18731 O1   48   DMPC C26  CTL2  -0.180000       12.0107           0
   18732 O1   48   DMPC H6R  HAL2   0.090000        1.0079           0
   18733 O1   48   DMPC H6S  HAL2   0.090000        1.0079           0
   18734 O1   48   DMPC C27  CTL2  -0.180000       12.0107           0
   18735 O1   48   DMPC H7R  HAL2   0.090000        1.0079           0
   18736 O1   48   DMPC H7S  HAL2   0.090000        1.0079           0
   18737 O1   48   DMPC C28  CTL2  -0.180000       12.0107           0
   18738 O1   48   DMPC H8R  HAL2   0.090000        1.0079           0
   18739 O1   48   DMPC H8S  HAL2   0.090000        1.0079           0
   18740 O1   48   DMPC C29  CTL2  -0.180000       12.0107           0
   18741 O1   48   DMPC H9R  HAL2   0.090000        1.0079           0
   18742 O1   48   DMPC H9S  HAL2   0.090000        1.0079           0
   18743 O1   48   DMPC C210 CTL2  -0.180000       12.0107           0
   18744 O1   48   DMPC H10R HAL2   0.090000        1.0079           0
   18745 O1   48   DMPC H10S HAL2   0.090000        1.0079           0
   18746 O1   48   DMPC C211 CTL2  -0.180000       12.0107           0
   18747 O1   48   DMPC H11R HAL2   0.090000        1.0079           0
   18748 O1   48   DMPC H11S HAL2   0.090000        1.0079           0
   18749 O1   48   DMPC C212 CTL2  -0.180000       12.0107           0
   18750 O1   48   DMPC H12R HAL2   0.090000        1.0079           0
   18751 O1   48   DMPC H12S HAL2   0.090000        1.0079           0
   18752 O1   48   DMPC C213 CTL2  -0.180000       12.0107           0
   18753 O1   48   DMPC H13R HAL2   0.090000        1.0079           0
   18754 O1   48   DMPC H13S HAL2   0.090000        1.0079           0
   18755 O1   48   DMPC C214 CTL3  -0.270000       12.0107           0
   18756 O1   48   DMPC H14R HAL3   0.090000        1.0079           0
   18757 O1   48   DMPC H14S HAL3   0.090000        1.0079           0
   18758 O1   48   DMPC H14T HAL3   0.090000        1.0079           0
   18759 O1   48   DMPC C33  CTL2  -0.180000       12.0107           0
   18760 O1   48   DMPC H3X  HAL2   0.090000        1.0079           0
   18761 O1   48   DMPC H3Y  HAL2   0.090000        1.0079           0
   18762 O1   48   DMPC C34  CTL2  -0.180000       12.0107           0
   18763 O1   48   DMPC H4X  HAL2   0.090000        1.0079           0
   18764 O1   48   DMPC H4Y  HAL2   0.090000        1.0079           0
   18765 O1   48   DMPC C35  CTL2  -0.180000       12.0107           0
   18766 O1   48   DMPC H5X  HAL2   0.090000        1.0079           0
   18767 O1   48   DMPC H5Y  HAL2   0.090000        1.0079           0
   18768 O1   48   DMPC C36  CTL2  -0.180000       12.0107           0
   18769 O1   48   DMPC H6X  HAL2   0.090000        1.0079           0
   18770 O1   48   DMPC H6Y  HAL2   0.090000        1.0079           0
   18771 O1   48   DMPC C37  CTL2  -0.180000       12.0107           0
   18772 O1   48   DMPC H7X  HAL2   0.090000        1.0079           0
   18773 O1   48   DMPC H7Y  HAL2   0.090000        1.0079           0
   18774 O1   48   DMPC C38  CTL2  -0.180000       12.0107           0
   18775 O1   48   DMPC H8X  HAL2   0.090000        1.0079           0
   18776 O1   48   DMPC H8Y  HAL2   0.090000        1.0079           0
   18777 O1   48   DMPC C39  CTL2  -0.180000       12.0107           0
   18778 O1   48   DMPC H9X  HAL2   0.090000        1.0079           0
   18779 O1   48   DMPC H9Y  HAL2   0.090000        1.0079           0
   18780 O1   48   DMPC C310 CTL2  -0.180000       12.0107           0
   18781 O1   48   DMPC H10X HAL2   0.090000        1.0079           0
   18782 O1   48   DMPC H10Y HAL2   0.090000        1.0079           0
   18783 O1   48   DMPC C311 CTL2  -0.180000       12.0107           0
   18784 O1   48   DMPC H11X HAL2   0.090000        1.0079           0
   18785 O1   48   DMPC H11Y HAL2   0.090000        1.0079           0
   18786 O1   48   DMPC C312 CTL2  -0.180000       12.0107           0
   18787 O1   48   DMPC H12X HAL2   0.090000        1.0079           0
   18788 O1   48   DMPC H12Y HAL2   0.090000        1.0079           0
   18789 O1   48   DMPC C313 CTL2  -0.180000       12.0107           0
   18790 O1   48   DMPC H13X HAL2   0.090000        1.0079           0
   18791 O1   48   DMPC H13Y HAL2   0.090000        1.0079           0
   18792 O1   48   DMPC C314 CTL3  -0.270000       12.0107           0
   18793 O1   48   DMPC H14X HAL3   0.090000        1.0079           0
   18794 O1   48   DMPC H14Y HAL3   0.090000        1.0079           0
   18795 O1   48   DMPC H14Z HAL3   0.090000        1.0079           0
   18796 O1   49   DMPC N    NTL   -0.600000       14.0067           0
   18797 O1   49   DMPC C13  CTL5  -0.350000       12.0107           0
   18798 O1   49   DMPC H13A HL     0.250000        1.0079           0
   18799 O1   49   DMPC H13B HL     0.250000        1.0079           0
   18800 O1   49   DMPC H13C HL     0.250000        1.0079           0
   18801 O1   49   DMPC C14  CTL5  -0.350000       12.0107           0
   18802 O1   49   DMPC H14A HL     0.250000        1.0079           0
   18803 O1   49   DMPC H14B HL     0.250000        1.0079           0
   18804 O1   49   DMPC H14C HL     0.250000        1.0079           0
   18805 O1   49   DMPC C15  CTL5  -0.350000       12.0107           0
   18806 O1   49   DMPC H15A HL     0.250000        1.0079           0
   18807 O1   49   DMPC H15B HL     0.250000        1.0079           0
   18808 O1   49   DMPC H15C HL     0.250000        1.0079           0
   18809 O1   49   DMPC C12  CTL2  -0.100000       12.0107           0
   18810 O1   49   DMPC H12A HL     0.250000        1.0079           0
   18811 O1   49   DMPC H12B HL     0.250000        1.0079           0
   18812 O1   49   DMPC C11  CTL2  -0.080000       12.0107           0
   18813 O1   49   DMPC H11A HAL2   0.090000        1.0079           0
   18814 O1   49   DMPC H11B HAL2   0.090000        1.0079           0
   18815 O1   49   DMPC P    PL     1.500000       30.9738           0
   18816 O1   49   DMPC O13  O2L   -0.780000       15.9994           0
   18817 O1   49   DMPC O14  O2L   -0.780000       15.9994           0
   18818 O1   49   DMPC O11  OSLP  -0.570000       15.9994           0
   18819 O1   49   DMPC O12  OSLP  -0.570000       15.9994           0
   18820 O1   49   DMPC C1   CTL2  -0.080000       12.0107           0
   18821 O1   49   DMPC HA   HAL2   0.090000        1.0079           0
   18822 O1   49   DMPC HB   HAL2   0.090000        1.0079           0
   18823 O1   49   DMPC C2   CTL1   0.170000       12.0107           0
   18824 O1   49   DMPC HS   HAL1   0.090000        1.0079           0
   18825 O1   49   DMPC O21  OSL   -0.490000       15.9994           0
   18826 O1   49   DMPC C21  CL     0.900000       12.0107           0
   18827 O1   49   DMPC O22  OBL   -0.630000       15.9994           0
   18828 O1   49   DMPC C22  CTL2  -0.220000       12.0107           0
   18829 O1   49   DMPC H2R  HAL2   0.090000        1.0079           0
   18830 O1   49   DMPC H2S  HAL2   0.090000        1.0079           0
   18831 O1   49   DMPC C3   CTL2   0.080000       12.0107           0
   18832 O1   49   DMPC HX   HAL2   0.090000        1.0079           0
   18833 O1   49   DMPC HY   HAL2   0.090000        1.0079           0
   18834 O1   49   DMPC O31  OSL   -0.490000       15.9994           0
   18835 O1   49   DMPC C31  CL     0.900000       12.0107           0
   18836 O1   49   DMPC O32  OBL   -0.630000       15.9994           0
   18837 O1   49   DMPC C32  CTL2  -0.220000       12.0107           0
   18838 O1   49   DMPC H2X  HAL2   0.090000        1.0079           0
   18839 O1   49   DMPC H2Y  HAL2   0.090000        1.0079           0
   18840 O1   49   DMPC C23  CTL2  -0.180000       12.0107           0
   18841 O1   49   DMPC H3R  HAL2   0.090000        1.0079           0
   18842 O1   49   DMPC H3S  HAL2   0.090000        1.0079           0
   18843 O1   49   DMPC C24  CTL2  -0.180000       12.0107           0
   18844 O1   49   DMPC H4R  HAL2   0.090000        1.0079           0
   18845 O1   49   DMPC H4S  HAL2   0.090000        1.0079           0
   18846 O1   49   DMPC C25  CTL2  -0.180000       12.0107           0
   18847 O1   49   DMPC H5R  HAL2   0.090000        1.0079           0
   18848 O1   49   DMPC H5S  HAL2   0.090000        1.0079           0
   18849 O1   49   DMPC C26  CTL2  -0.180000       12.0107           0
   18850 O1   49   DMPC H6R  HAL2   0.090000        1.0079           0
   18851 O1   49   DMPC H6S  HAL2   0.090000        1.0079           0
   18852 O1   49   DMPC C27  CTL2  -0.180000       12.0107           0
   18853 O1   49   DMPC H7R  HAL2   0.090000        1.0079           0
   18854 O1   49   DMPC H7S  HAL2   0.090000        1.0079           0
   18855 O1   49   DMPC C28  CTL2  -0.180000       12.0107           0
   18856 O1   49   DMPC H8R  HAL2   0.090000        1.0079           0
   18857 O1   49   DMPC H8S  HAL2   0.090000        1.0079           0
   18858 O1   49   DMPC C29  CTL2  -0.180000       12.0107           0
   18859 O1   49   DMPC H9R  HAL2   0.090000        1.0079           0
   18860 O1   49   DMPC H9S  HAL2   0.090000        1.0079           0
   18861 O1   49   DMPC C210 CTL2  -0.180000       12.0107           0
   18862 O1   49   DMPC H10R HAL2   0.090000        1.0079           0
   18863 O1   49   DMPC H10S HAL2   0.090000        1.0079           0
   18864 O1   49   DMPC C211 CTL2  -0.180000       12.0107           0
   18865 O1   49   DMPC H11R HAL2   0.090000        1.0079           0
   18866 O1   49   DMPC H11S HAL2   0.090000        1.0079           0
   18867 O1   49   DMPC C212 CTL2  -0.180000       12.0107           0
   18868 O1   49   DMPC H12R HAL2   0.090000        1.0079           0
   18869 O1   49   DMPC H12S HAL2   0.090000        1.0079           0
   18870 O1   49   DMPC C213 CTL2  -0.180000       12.0107           0
   18871 O1   49   DMPC H13R HAL2   0.090000        1.0079           0
   18872 O1   49   DMPC H13S HAL2   0.090000        1.0079           0
   18873 O1   49   DMPC C214 CTL3  -0.270000       12.0107           0
   18874 O1   49   DMPC H14R HAL3   0.090000        1.0079           0
   18875 O1   49   DMPC H14S HAL3   0.090000        1.0079           0
   18876 O1   49   DMPC H14T HAL3   0.090000        1.0079           0
   18877 O1   49   DMPC C33  CTL2  -0.180000       12.0107           0
   18878 O1   49   DMPC H3X  HAL2   0.090000        1.0079           0
   18879 O1   49   DMPC H3Y  HAL2   0.090000        1.0079           0
   18880 O1   49   DMPC C34  CTL2  -0.180000       12.0107           0
   18881 O1   49   DMPC H4X  HAL2   0.090000        1.0079           0
   18882 O1   49   DMPC H4Y  HAL2   0.090000        1.0079           0
   18883 O1   49   DMPC C35  CTL2  -0.180000       12.0107           0
   18884 O1   49   DMPC H5X  HAL2   0.090000        1.0079           0
   18885 O1   49   DMPC H5Y  HAL2   0.090000        1.0079           0
   18886 O1   49   DMPC C36  CTL2  -0.180000       12.0107           0
   18887 O1   49   DMPC H6X  HAL2   0.090000        1.0079           0
   18888 O1   49   DMPC H6Y  HAL2   0.090000        1.0079           0
   18889 O1   49   DMPC C37  CTL2  -0.180000       12.0107           0
   18890 O1   49   DMPC H7X  HAL2   0.090000        1.0079           0
   18891 O1   49   DMPC H7Y  HAL2   0.090000        1.0079           0
   18892 O1   49   DMPC C38  CTL2  -0.180000       12.0107           0
   18893 O1   49   DMPC H8X  HAL2   0.090000        1.0079           0
   18894 O1   49   DMPC H8Y  HAL2   0.090000        1.0079           0
   18895 O1   49   DMPC C39  CTL2  -0.180000       12.0107           0
   18896 O1   49   DMPC H9X  HAL2   0.090000        1.0079           0
   18897 O1   49   DMPC H9Y  HAL2   0.090000        1.0079           0
   18898 O1   49   DMPC C310 CTL2  -0.180000       12.0107           0
   18899 O1   49   DMPC H10X HAL2   0.090000        1.0079           0
   18900 O1   49   DMPC H10Y HAL2   0.090000        1.0079           0
   18901 O1   49   DMPC C311 CTL2  -0.180000       12.0107           0
   18902 O1   49   DMPC H11X HAL2   0.090000        1.0079           0
   18903 O1   49   DMPC H11Y HAL2   0.090000        1.0079           0
   18904 O1   49   DMPC C312 CTL2  -0.180000       12.0107           0
   18905 O1   49   DMPC H12X HAL2   0.090000        1.0079           0
   18906 O1   49   DMPC H12Y HAL2   0.090000        1.0079           0
   18907 O1   49   DMPC C313 CTL2  -0.180000       12.0107           0
   18908 O1   49   DMPC H13X HAL2   0.090000        1.0079           0
   18909 O1   49   DMPC H13Y HAL2   0.090000        1.0079           0
   18910 O1   49   DMPC C314 CTL3  -0.270000       12.0107           0
   18911 O1   49   DMPC H14X HAL3   0.090000        1.0079           0
   18912 O1   49   DMPC H14Y HAL3   0.090000        1.0079           0
   18913 O1   49   DMPC H14Z HAL3   0.090000        1.0079           0
   18914 O1   50   DMPC N    NTL   -0.600000       14.0067           0
   18915 O1   50   DMPC C13  CTL5  -0.350000       12.0107           0
   18916 O1   50   DMPC H13A HL     0.250000        1.0079           0
   18917 O1   50   DMPC H13B HL     0.250000        1.0079           0
   18918 O1   50   DMPC H13C HL     0.250000        1.0079           0
   18919 O1   50   DMPC C14  CTL5  -0.350000       12.0107           0
   18920 O1   50   DMPC H14A HL     0.250000        1.0079           0
   18921 O1   50   DMPC H14B HL     0.250000        1.0079           0
   18922 O1   50   DMPC H14C HL     0.250000        1.0079           0
   18923 O1   50   DMPC C15  CTL5  -0.350000       12.0107           0
   18924 O1   50   DMPC H15A HL     0.250000        1.0079           0
   18925 O1   50   DMPC H15B HL     0.250000        1.0079           0
   18926 O1   50   DMPC H15C HL     0.250000        1.0079           0
   18927 O1   50   DMPC C12  CTL2  -0.100000       12.0107           0
   18928 O1   50   DMPC H12A HL     0.250000        1.0079           0
   18929 O1   50   DMPC H12B HL     0.250000        1.0079           0
   18930 O1   50   DMPC C11  CTL2  -0.080000       12.0107           0
   18931 O1   50   DMPC H11A HAL2   0.090000        1.0079           0
   18932 O1   50   DMPC H11B HAL2   0.090000        1.0079           0
   18933 O1   50   DMPC P    PL     1.500000       30.9738           0
   18934 O1   50   DMPC O13  O2L   -0.780000       15.9994           0
   18935 O1   50   DMPC O14  O2L   -0.780000       15.9994           0
   18936 O1   50   DMPC O11  OSLP  -0.570000       15.9994           0
   18937 O1   50   DMPC O12  OSLP  -0.570000       15.9994           0
   18938 O1   50   DMPC C1   CTL2  -0.080000       12.0107           0
   18939 O1   50   DMPC HA   HAL2   0.090000        1.0079           0
   18940 O1   50   DMPC HB   HAL2   0.090000        1.0079           0
   18941 O1   50   DMPC C2   CTL1   0.170000       12.0107           0
   18942 O1   50   DMPC HS   HAL1   0.090000        1.0079           0
   18943 O1   50   DMPC O21  OSL   -0.490000       15.9994           0
   18944 O1   50   DMPC C21  CL     0.900000       12.0107           0
   18945 O1   50   DMPC O22  OBL   -0.630000       15.9994           0
   18946 O1   50   DMPC C22  CTL2  -0.220000       12.0107           0
   18947 O1   50   DMPC H2R  HAL2   0.090000        1.0079           0
   18948 O1   50   DMPC H2S  HAL2   0.090000        1.0079           0
   18949 O1   50   DMPC C3   CTL2   0.080000       12.0107           0
   18950 O1   50   DMPC HX   HAL2   0.090000        1.0079           0
   18951 O1   50   DMPC HY   HAL2   0.090000        1.0079           0
   18952 O1   50   DMPC O31  OSL   -0.490000       15.9994           0
   18953 O1   50   DMPC C31  CL     0.900000       12.0107           0
   18954 O1   50   DMPC O32  OBL   -0.630000       15.9994           0
   18955 O1   50   DMPC C32  CTL2  -0.220000       12.0107           0
   18956 O1   50   DMPC H2X  HAL2   0.090000        1.0079           0
   18957 O1   50   DMPC H2Y  HAL2   0.090000        1.0079           0
   18958 O1   50   DMPC C23  CTL2  -0.180000       12.0107           0
   18959 O1   50   DMPC H3R  HAL2   0.090000        1.0079           0
   18960 O1   50   DMPC H3S  HAL2   0.090000        1.0079           0
   18961 O1   50   DMPC C24  CTL2  -0.180000       12.0107           0
   18962 O1   50   DMPC H4R  HAL2   0.090000        1.0079           0
   18963 O1   50   DMPC H4S  HAL2   0.090000        1.0079           0
   18964 O1   50   DMPC C25  CTL2  -0.180000       12.0107           0
   18965 O1   50   DMPC H5R  HAL2   0.090000        1.0079           0
   18966 O1   50   DMPC H5S  HAL2   0.090000        1.0079           0
   18967 O1   50   DMPC C26  CTL2  -0.180000       12.0107           0
   18968 O1   50   DMPC H6R  HAL2   0.090000        1.0079           0
   18969 O1   50   DMPC H6S  HAL2   0.090000        1.0079           0
   18970 O1   50   DMPC C27  CTL2  -0.180000       12.0107           0
   18971 O1   50   DMPC H7R  HAL2   0.090000        1.0079           0
   18972 O1   50   DMPC H7S  HAL2   0.090000        1.0079           0
   18973 O1   50   DMPC C28  CTL2  -0.180000       12.0107           0
   18974 O1   50   DMPC H8R  HAL2   0.090000        1.0079           0
   18975 O1   50   DMPC H8S  HAL2   0.090000        1.0079           0
   18976 O1   50   DMPC C29  CTL2  -0.180000       12.0107           0
   18977 O1   50   DMPC H9R  HAL2   0.090000        1.0079           0
   18978 O1   50   DMPC H9S  HAL2   0.090000        1.0079           0
   18979 O1   50   DMPC C210 CTL2  -0.180000       12.0107           0
   18980 O1   50   DMPC H10R HAL2   0.090000        1.0079           0
   18981 O1   50   DMPC H10S HAL2   0.090000        1.0079           0
   18982 O1   50   DMPC C211 CTL2  -0.180000       12.0107           0
   18983 O1   50   DMPC H11R HAL2   0.090000        1.0079           0
   18984 O1   50   DMPC H11S HAL2   0.090000        1.0079           0
   18985 O1   50   DMPC C212 CTL2  -0.180000       12.0107           0
   18986 O1   50   DMPC H12R HAL2   0.090000        1.0079           0
   18987 O1   50   DMPC H12S HAL2   0.090000        1.0079           0
   18988 O1   50   DMPC C213 CTL2  -0.180000       12.0107           0
   18989 O1   50   DMPC H13R HAL2   0.090000        1.0079           0
   18990 O1   50   DMPC H13S HAL2   0.090000        1.0079           0
   18991 O1   50   DMPC C214 CTL3  -0.270000       12.0107           0
   18992 O1   50   DMPC H14R HAL3   0.090000        1.0079           0
   18993 O1   50   DMPC H14S HAL3   0.090000        1.0079           0
   18994 O1   50   DMPC H14T HAL3   0.090000        1.0079           0
   18995 O1   50   DMPC C33  CTL2  -0.180000       12.0107           0
   18996 O1   50   DMPC H3X  HAL2   0.090000        1.0079           0
   18997 O1   50   DMPC H3Y  HAL2   0.090000        1.0079           0
   18998 O1   50   DMPC C34  CTL2  -0.180000       12.0107           0
   18999 O1   50   DMPC H4X  HAL2   0.090000        1.0079           0
   19000 O1   50   DMPC H4Y  HAL2   0.090000        1.0079           0
   19001 O1   50   DMPC C35  CTL2  -0.180000       12.0107           0
   19002 O1   50   DMPC H5X  HAL2   0.090000        1.0079           0
   19003 O1   50   DMPC H5Y  HAL2   0.090000        1.0079           0
   19004 O1   50   DMPC C36  CTL2  -0.180000       12.0107           0
   19005 O1   50   DMPC H6X  HAL2   0.090000        1.0079           0
   19006 O1   50   DMPC H6Y  HAL2   0.090000        1.0079           0
   19007 O1   50   DMPC C37  CTL2  -0.180000       12.0107           0
   19008 O1   50   DMPC H7X  HAL2   0.090000        1.0079           0
   19009 O1   50   DMPC H7Y  HAL2   0.090000        1.0079           0
   19010 O1   50   DMPC C38  CTL2  -0.180000       12.0107           0
   19011 O1   50   DMPC H8X  HAL2   0.090000        1.0079           0
   19012 O1   50   DMPC H8Y  HAL2   0.090000        1.0079           0
   19013 O1   50   DMPC C39  CTL2  -0.180000       12.0107           0
   19014 O1   50   DMPC H9X  HAL2   0.090000        1.0079           0
   19015 O1   50   DMPC H9Y  HAL2   0.090000        1.0079           0
   19016 O1   50   DMPC C310 CTL2  -0.180000       12.0107           0
   19017 O1   50   DMPC H10X HAL2   0.090000        1.0079           0
   19018 O1   50   DMPC H10Y HAL2   0.090000        1.0079           0
   19019 O1   50   DMPC C311 CTL2  -0.180000       12.0107           0
   19020 O1   50   DMPC H11X HAL2   0.090000        1.0079           0
   19021 O1   50   DMPC H11Y HAL2   0.090000        1.0079           0
   19022 O1   50   DMPC C312 CTL2  -0.180000       12.0107           0
   19023 O1   50   DMPC H12X HAL2   0.090000        1.0079           0
   19024 O1   50   DMPC H12Y HAL2   0.090000        1.0079           0
   19025 O1   50   DMPC C313 CTL2  -0.180000       12.0107           0
   19026 O1   50   DMPC H13X HAL2   0.090000        1.0079           0
   19027 O1   50   DMPC H13Y HAL2   0.090000        1.0079           0
   19028 O1   50   DMPC C314 CTL3  -0.270000       12.0107           0
   19029 O1   50   DMPC H14X HAL3   0.090000        1.0079           0
   19030 O1   50   DMPC H14Y HAL3   0.090000        1.0079           0
   19031 O1   50   DMPC H14Z HAL3   0.090000        1.0079           0
   19032 O1   51   DMPC N    NTL   -0.600000       14.0067           0
   19033 O1   51   DMPC C13  CTL5  -0.350000       12.0107           0
   19034 O1   51   DMPC H13A HL     0.250000        1.0079           0
   19035 O1   51   DMPC H13B HL     0.250000        1.0079           0
   19036 O1   51   DMPC H13C HL     0.250000        1.0079           0
   19037 O1   51   DMPC C14  CTL5  -0.350000       12.0107           0
   19038 O1   51   DMPC H14A HL     0.250000        1.0079           0
   19039 O1   51   DMPC H14B HL     0.250000        1.0079           0
   19040 O1   51   DMPC H14C HL     0.250000        1.0079           0
   19041 O1   51   DMPC C15  CTL5  -0.350000       12.0107           0
   19042 O1   51   DMPC H15A HL     0.250000        1.0079           0
   19043 O1   51   DMPC H15B HL     0.250000        1.0079           0
   19044 O1   51   DMPC H15C HL     0.250000        1.0079           0
   19045 O1   51   DMPC C12  CTL2  -0.100000       12.0107           0
   19046 O1   51   DMPC H12A HL     0.250000        1.0079           0
   19047 O1   51   DMPC H12B HL     0.250000        1.0079           0
   19048 O1   51   DMPC C11  CTL2  -0.080000       12.0107           0
   19049 O1   51   DMPC H11A HAL2   0.090000        1.0079           0
   19050 O1   51   DMPC H11B HAL2   0.090000        1.0079           0
   19051 O1   51   DMPC P    PL     1.500000       30.9738           0
   19052 O1   51   DMPC O13  O2L   -0.780000       15.9994           0
   19053 O1   51   DMPC O14  O2L   -0.780000       15.9994           0
   19054 O1   51   DMPC O11  OSLP  -0.570000       15.9994           0
   19055 O1   51   DMPC O12  OSLP  -0.570000       15.9994           0
   19056 O1   51   DMPC C1   CTL2  -0.080000       12.0107           0
   19057 O1   51   DMPC HA   HAL2   0.090000        1.0079           0
   19058 O1   51   DMPC HB   HAL2   0.090000        1.0079           0
   19059 O1   51   DMPC C2   CTL1   0.170000       12.0107           0
   19060 O1   51   DMPC HS   HAL1   0.090000        1.0079           0
   19061 O1   51   DMPC O21  OSL   -0.490000       15.9994           0
   19062 O1   51   DMPC C21  CL     0.900000       12.0107           0
   19063 O1   51   DMPC O22  OBL   -0.630000       15.9994           0
   19064 O1   51   DMPC C22  CTL2  -0.220000       12.0107           0
   19065 O1   51   DMPC H2R  HAL2   0.090000        1.0079           0
   19066 O1   51   DMPC H2S  HAL2   0.090000        1.0079           0
   19067 O1   51   DMPC C3   CTL2   0.080000       12.0107           0
   19068 O1   51   DMPC HX   HAL2   0.090000        1.0079           0
   19069 O1   51   DMPC HY   HAL2   0.090000        1.0079           0
   19070 O1   51   DMPC O31  OSL   -0.490000       15.9994           0
   19071 O1   51   DMPC C31  CL     0.900000       12.0107           0
   19072 O1   51   DMPC O32  OBL   -0.630000       15.9994           0
   19073 O1   51   DMPC C32  CTL2  -0.220000       12.0107           0
   19074 O1   51   DMPC H2X  HAL2   0.090000        1.0079           0
   19075 O1   51   DMPC H2Y  HAL2   0.090000        1.0079           0
   19076 O1   51   DMPC C23  CTL2  -0.180000       12.0107           0
   19077 O1   51   DMPC H3R  HAL2   0.090000        1.0079           0
   19078 O1   51   DMPC H3S  HAL2   0.090000        1.0079           0
   19079 O1   51   DMPC C24  CTL2  -0.180000       12.0107           0
   19080 O1   51   DMPC H4R  HAL2   0.090000        1.0079           0
   19081 O1   51   DMPC H4S  HAL2   0.090000        1.0079           0
   19082 O1   51   DMPC C25  CTL2  -0.180000       12.0107           0
   19083 O1   51   DMPC H5R  HAL2   0.090000        1.0079           0
   19084 O1   51   DMPC H5S  HAL2   0.090000        1.0079           0
   19085 O1   51   DMPC C26  CTL2  -0.180000       12.0107           0
   19086 O1   51   DMPC H6R  HAL2   0.090000        1.0079           0
   19087 O1   51   DMPC H6S  HAL2   0.090000        1.0079           0
   19088 O1   51   DMPC C27  CTL2  -0.180000       12.0107           0
   19089 O1   51   DMPC H7R  HAL2   0.090000        1.0079           0
   19090 O1   51   DMPC H7S  HAL2   0.090000        1.0079           0
   19091 O1   51   DMPC C28  CTL2  -0.180000       12.0107           0
   19092 O1   51   DMPC H8R  HAL2   0.090000        1.0079           0
   19093 O1   51   DMPC H8S  HAL2   0.090000        1.0079           0
   19094 O1   51   DMPC C29  CTL2  -0.180000       12.0107           0
   19095 O1   51   DMPC H9R  HAL2   0.090000        1.0079           0
   19096 O1   51   DMPC H9S  HAL2   0.090000        1.0079           0
   19097 O1   51   DMPC C210 CTL2  -0.180000       12.0107           0
   19098 O1   51   DMPC H10R HAL2   0.090000        1.0079           0
   19099 O1   51   DMPC H10S HAL2   0.090000        1.0079           0
   19100 O1   51   DMPC C211 CTL2  -0.180000       12.0107           0
   19101 O1   51   DMPC H11R HAL2   0.090000        1.0079           0
   19102 O1   51   DMPC H11S HAL2   0.090000        1.0079           0
   19103 O1   51   DMPC C212 CTL2  -0.180000       12.0107           0
   19104 O1   51   DMPC H12R HAL2   0.090000        1.0079           0
   19105 O1   51   DMPC H12S HAL2   0.090000        1.0079           0
   19106 O1   51   DMPC C213 CTL2  -0.180000       12.0107           0
   19107 O1   51   DMPC H13R HAL2   0.090000        1.0079           0
   19108 O1   51   DMPC H13S HAL2   0.090000        1.0079           0
   19109 O1   51   DMPC C214 CTL3  -0.270000       12.0107           0
   19110 O1   51   DMPC H14R HAL3   0.090000        1.0079           0
   19111 O1   51   DMPC H14S HAL3   0.090000        1.0079           0
   19112 O1   51   DMPC H14T HAL3   0.090000        1.0079           0
   19113 O1   51   DMPC C33  CTL2  -0.180000       12.0107           0
   19114 O1   51   DMPC H3X  HAL2   0.090000        1.0079           0
   19115 O1   51   DMPC H3Y  HAL2   0.090000        1.0079           0
   19116 O1   51   DMPC C34  CTL2  -0.180000       12.0107           0
   19117 O1   51   DMPC H4X  HAL2   0.090000        1.0079           0
   19118 O1   51   DMPC H4Y  HAL2   0.090000        1.0079           0
   19119 O1   51   DMPC C35  CTL2  -0.180000       12.0107           0
   19120 O1   51   DMPC H5X  HAL2   0.090000        1.0079           0
   19121 O1   51   DMPC H5Y  HAL2   0.090000        1.0079           0
   19122 O1   51   DMPC C36  CTL2  -0.180000       12.0107           0
   19123 O1   51   DMPC H6X  HAL2   0.090000        1.0079           0
   19124 O1   51   DMPC H6Y  HAL2   0.090000        1.0079           0
   19125 O1   51   DMPC C37  CTL2  -0.180000       12.0107           0
   19126 O1   51   DMPC H7X  HAL2   0.090000        1.0079           0
   19127 O1   51   DMPC H7Y  HAL2   0.090000        1.0079           0
   19128 O1   51   DMPC C38  CTL2  -0.180000       12.0107           0
   19129 O1   51   DMPC H8X  HAL2   0.090000        1.0079           0
   19130 O1   51   DMPC H8Y  HAL2   0.090000        1.0079           0
   19131 O1   51   DMPC C39  CTL2  -0.180000       12.0107           0
   19132 O1   51   DMPC H9X  HAL2   0.090000        1.0079           0
   19133 O1   51   DMPC H9Y  HAL2   0.090000        1.0079           0
   19134 O1   51   DMPC C310 CTL2  -0.180000       12.0107           0
   19135 O1   51   DMPC H10X HAL2   0.090000        1.0079           0
   19136 O1   51   DMPC H10Y HAL2   0.090000        1.0079           0
   19137 O1   51   DMPC C311 CTL2  -0.180000       12.0107           0
   19138 O1   51   DMPC H11X HAL2   0.090000        1.0079           0
   19139 O1   51   DMPC H11Y HAL2   0.090000        1.0079           0
   19140 O1   51   DMPC C312 CTL2  -0.180000       12.0107           0
   19141 O1   51   DMPC H12X HAL2   0.090000        1.0079           0
   19142 O1   51   DMPC H12Y HAL2   0.090000        1.0079           0
   19143 O1   51   DMPC C313 CTL2  -0.180000       12.0107           0
   19144 O1   51   DMPC H13X HAL2   0.090000        1.0079           0
   19145 O1   51   DMPC H13Y HAL2   0.090000        1.0079           0
   19146 O1   51   DMPC C314 CTL3  -0.270000       12.0107           0
   19147 O1   51   DMPC H14X HAL3   0.090000        1.0079           0
   19148 O1   51   DMPC H14Y HAL3   0.090000        1.0079           0
   19149 O1   51   DMPC H14Z HAL3   0.090000        1.0079           0
   19150 O1   52   DMPC N    NTL   -0.600000       14.0067           0
   19151 O1   52   DMPC C13  CTL5  -0.350000       12.0107           0
   19152 O1   52   DMPC H13A HL     0.250000        1.0079           0
   19153 O1   52   DMPC H13B HL     0.250000        1.0079           0
   19154 O1   52   DMPC H13C HL     0.250000        1.0079           0
   19155 O1   52   DMPC C14  CTL5  -0.350000       12.0107           0
   19156 O1   52   DMPC H14A HL     0.250000        1.0079           0
   19157 O1   52   DMPC H14B HL     0.250000        1.0079           0
   19158 O1   52   DMPC H14C HL     0.250000        1.0079           0
   19159 O1   52   DMPC C15  CTL5  -0.350000       12.0107           0
   19160 O1   52   DMPC H15A HL     0.250000        1.0079           0
   19161 O1   52   DMPC H15B HL     0.250000        1.0079           0
   19162 O1   52   DMPC H15C HL     0.250000        1.0079           0
   19163 O1   52   DMPC C12  CTL2  -0.100000       12.0107           0
   19164 O1   52   DMPC H12A HL     0.250000        1.0079           0
   19165 O1   52   DMPC H12B HL     0.250000        1.0079           0
   19166 O1   52   DMPC C11  CTL2  -0.080000       12.0107           0
   19167 O1   52   DMPC H11A HAL2   0.090000        1.0079           0
   19168 O1   52   DMPC H11B HAL2   0.090000        1.0079           0
   19169 O1   52   DMPC P    PL     1.500000       30.9738           0
   19170 O1   52   DMPC O13  O2L   -0.780000       15.9994           0
   19171 O1   52   DMPC O14  O2L   -0.780000       15.9994           0
   19172 O1   52   DMPC O11  OSLP  -0.570000       15.9994           0
   19173 O1   52   DMPC O12  OSLP  -0.570000       15.9994           0
   19174 O1   52   DMPC C1   CTL2  -0.080000       12.0107           0
   19175 O1   52   DMPC HA   HAL2   0.090000        1.0079           0
   19176 O1   52   DMPC HB   HAL2   0.090000        1.0079           0
   19177 O1   52   DMPC C2   CTL1   0.170000       12.0107           0
   19178 O1   52   DMPC HS   HAL1   0.090000        1.0079           0
   19179 O1   52   DMPC O21  OSL   -0.490000       15.9994           0
   19180 O1   52   DMPC C21  CL     0.900000       12.0107           0
   19181 O1   52   DMPC O22  OBL   -0.630000       15.9994           0
   19182 O1   52   DMPC C22  CTL2  -0.220000       12.0107           0
   19183 O1   52   DMPC H2R  HAL2   0.090000        1.0079           0
   19184 O1   52   DMPC H2S  HAL2   0.090000        1.0079           0
   19185 O1   52   DMPC C3   CTL2   0.080000       12.0107           0
   19186 O1   52   DMPC HX   HAL2   0.090000        1.0079           0
   19187 O1   52   DMPC HY   HAL2   0.090000        1.0079           0
   19188 O1   52   DMPC O31  OSL   -0.490000       15.9994           0
   19189 O1   52   DMPC C31  CL     0.900000       12.0107           0
   19190 O1   52   DMPC O32  OBL   -0.630000       15.9994           0
   19191 O1   52   DMPC C32  CTL2  -0.220000       12.0107           0
   19192 O1   52   DMPC H2X  HAL2   0.090000        1.0079           0
   19193 O1   52   DMPC H2Y  HAL2   0.090000        1.0079           0
   19194 O1   52   DMPC C23  CTL2  -0.180000       12.0107           0
   19195 O1   52   DMPC H3R  HAL2   0.090000        1.0079           0
   19196 O1   52   DMPC H3S  HAL2   0.090000        1.0079           0
   19197 O1   52   DMPC C24  CTL2  -0.180000       12.0107           0
   19198 O1   52   DMPC H4R  HAL2   0.090000        1.0079           0
   19199 O1   52   DMPC H4S  HAL2   0.090000        1.0079           0
   19200 O1   52   DMPC C25  CTL2  -0.180000       12.0107           0
   19201 O1   52   DMPC H5R  HAL2   0.090000        1.0079           0
   19202 O1   52   DMPC H5S  HAL2   0.090000        1.0079           0
   19203 O1   52   DMPC C26  CTL2  -0.180000       12.0107           0
   19204 O1   52   DMPC H6R  HAL2   0.090000        1.0079           0
   19205 O1   52   DMPC H6S  HAL2   0.090000        1.0079           0
   19206 O1   52   DMPC C27  CTL2  -0.180000       12.0107           0
   19207 O1   52   DMPC H7R  HAL2   0.090000        1.0079           0
   19208 O1   52   DMPC H7S  HAL2   0.090000        1.0079           0
   19209 O1   52   DMPC C28  CTL2  -0.180000       12.0107           0
   19210 O1   52   DMPC H8R  HAL2   0.090000        1.0079           0
   19211 O1   52   DMPC H8S  HAL2   0.090000        1.0079           0
   19212 O1   52   DMPC C29  CTL2  -0.180000       12.0107           0
   19213 O1   52   DMPC H9R  HAL2   0.090000        1.0079           0
   19214 O1   52   DMPC H9S  HAL2   0.090000        1.0079           0
   19215 O1   52   DMPC C210 CTL2  -0.180000       12.0107           0
   19216 O1   52   DMPC H10R HAL2   0.090000        1.0079           0
   19217 O1   52   DMPC H10S HAL2   0.090000        1.0079           0
   19218 O1   52   DMPC C211 CTL2  -0.180000       12.0107           0
   19219 O1   52   DMPC H11R HAL2   0.090000        1.0079           0
   19220 O1   52   DMPC H11S HAL2   0.090000        1.0079           0
   19221 O1   52   DMPC C212 CTL2  -0.180000       12.0107           0
   19222 O1   52   DMPC H12R HAL2   0.090000        1.0079           0
   19223 O1   52   DMPC H12S HAL2   0.090000        1.0079           0
   19224 O1   52   DMPC C213 CTL2  -0.180000       12.0107           0
   19225 O1   52   DMPC H13R HAL2   0.090000        1.0079           0
   19226 O1   52   DMPC H13S HAL2   0.090000        1.0079           0
   19227 O1   52   DMPC C214 CTL3  -0.270000       12.0107           0
   19228 O1   52   DMPC H14R HAL3   0.090000        1.0079           0
   19229 O1   52   DMPC H14S HAL3   0.090000        1.0079           0
   19230 O1   52   DMPC H14T HAL3   0.090000        1.0079           0
   19231 O1   52   DMPC C33  CTL2  -0.180000       12.0107           0
   19232 O1   52   DMPC H3X  HAL2   0.090000        1.0079           0
   19233 O1   52   DMPC H3Y  HAL2   0.090000        1.0079           0
   19234 O1   52   DMPC C34  CTL2  -0.180000       12.0107           0
   19235 O1   52   DMPC H4X  HAL2   0.090000        1.0079           0
   19236 O1   52   DMPC H4Y  HAL2   0.090000        1.0079           0
   19237 O1   52   DMPC C35  CTL2  -0.180000       12.0107           0
   19238 O1   52   DMPC H5X  HAL2   0.090000        1.0079           0
   19239 O1   52   DMPC H5Y  HAL2   0.090000        1.0079           0
   19240 O1   52   DMPC C36  CTL2  -0.180000       12.0107           0
   19241 O1   52   DMPC H6X  HAL2   0.090000        1.0079           0
   19242 O1   52   DMPC H6Y  HAL2   0.090000        1.0079           0
   19243 O1   52   DMPC C37  CTL2  -0.180000       12.0107           0
   19244 O1   52   DMPC H7X  HAL2   0.090000        1.0079           0
   19245 O1   52   DMPC H7Y  HAL2   0.090000        1.0079           0
   19246 O1   52   DMPC C38  CTL2  -0.180000       12.0107           0
   19247 O1   52   DMPC H8X  HAL2   0.090000        1.0079           0
   19248 O1   52   DMPC H8Y  HAL2   0.090000        1.0079           0
   19249 O1   52   DMPC C39  CTL2  -0.180000       12.0107           0
   19250 O1   52   DMPC H9X  HAL2   0.090000        1.0079           0
   19251 O1   52   DMPC H9Y  HAL2   0.090000        1.0079           0
   19252 O1   52   DMPC C310 CTL2  -0.180000       12.0107           0
   19253 O1   52   DMPC H10X HAL2   0.090000        1.0079           0
   19254 O1   52   DMPC H10Y HAL2   0.090000        1.0079           0
   19255 O1   52   DMPC C311 CTL2  -0.180000       12.0107           0
   19256 O1   52   DMPC H11X HAL2   0.090000        1.0079           0
   19257 O1   52   DMPC H11Y HAL2   0.090000        1.0079           0
   19258 O1   52   DMPC C312 CTL2  -0.180000       12.0107           0
   19259 O1   52   DMPC H12X HAL2   0.090000        1.0079           0
   19260 O1   52   DMPC H12Y HAL2   0.090000        1.0079           0
   19261 O1   52   DMPC C313 CTL2  -0.180000       12.0107           0
   19262 O1   52   DMPC H13X HAL2   0.090000        1.0079           0
   19263 O1   52   DMPC H13Y HAL2   0.090000        1.0079           0
   19264 O1   52   DMPC C314 CTL3  -0.270000       12.0107           0
   19265 O1   52   DMPC H14X HAL3   0.090000        1.0079           0
   19266 O1   52   DMPC H14Y HAL3   0.090000        1.0079           0
   19267 O1   52   DMPC H14Z HAL3   0.090000        1.0079           0
   19268 O1   53   DMPC N    NTL   -0.600000       14.0067           0
   19269 O1   53   DMPC C13  CTL5  -0.350000       12.0107           0
   19270 O1   53   DMPC H13A HL     0.250000        1.0079           0
   19271 O1   53   DMPC H13B HL     0.250000        1.0079           0
   19272 O1   53   DMPC H13C HL     0.250000        1.0079           0
   19273 O1   53   DMPC C14  CTL5  -0.350000       12.0107           0
   19274 O1   53   DMPC H14A HL     0.250000        1.0079           0
   19275 O1   53   DMPC H14B HL     0.250000        1.0079           0
   19276 O1   53   DMPC H14C HL     0.250000        1.0079           0
   19277 O1   53   DMPC C15  CTL5  -0.350000       12.0107           0
   19278 O1   53   DMPC H15A HL     0.250000        1.0079           0
   19279 O1   53   DMPC H15B HL     0.250000        1.0079           0
   19280 O1   53   DMPC H15C HL     0.250000        1.0079           0
   19281 O1   53   DMPC C12  CTL2  -0.100000       12.0107           0
   19282 O1   53   DMPC H12A HL     0.250000        1.0079           0
   19283 O1   53   DMPC H12B HL     0.250000        1.0079           0
   19284 O1   53   DMPC C11  CTL2  -0.080000       12.0107           0
   19285 O1   53   DMPC H11A HAL2   0.090000        1.0079           0
   19286 O1   53   DMPC H11B HAL2   0.090000        1.0079           0
   19287 O1   53   DMPC P    PL     1.500000       30.9738           0
   19288 O1   53   DMPC O13  O2L   -0.780000       15.9994           0
   19289 O1   53   DMPC O14  O2L   -0.780000       15.9994           0
   19290 O1   53   DMPC O11  OSLP  -0.570000       15.9994           0
   19291 O1   53   DMPC O12  OSLP  -0.570000       15.9994           0
   19292 O1   53   DMPC C1   CTL2  -0.080000       12.0107           0
   19293 O1   53   DMPC HA   HAL2   0.090000        1.0079           0
   19294 O1   53   DMPC HB   HAL2   0.090000        1.0079           0
   19295 O1   53   DMPC C2   CTL1   0.170000       12.0107           0
   19296 O1   53   DMPC HS   HAL1   0.090000        1.0079           0
   19297 O1   53   DMPC O21  OSL   -0.490000       15.9994           0
   19298 O1   53   DMPC C21  CL     0.900000       12.0107           0
   19299 O1   53   DMPC O22  OBL   -0.630000       15.9994           0
   19300 O1   53   DMPC C22  CTL2  -0.220000       12.0107           0
   19301 O1   53   DMPC H2R  HAL2   0.090000        1.0079           0
   19302 O1   53   DMPC H2S  HAL2   0.090000        1.0079           0
   19303 O1   53   DMPC C3   CTL2   0.080000       12.0107           0
   19304 O1   53   DMPC HX   HAL2   0.090000        1.0079           0
   19305 O1   53   DMPC HY   HAL2   0.090000        1.0079           0
   19306 O1   53   DMPC O31  OSL   -0.490000       15.9994           0
   19307 O1   53   DMPC C31  CL     0.900000       12.0107           0
   19308 O1   53   DMPC O32  OBL   -0.630000       15.9994           0
   19309 O1   53   DMPC C32  CTL2  -0.220000       12.0107           0
   19310 O1   53   DMPC H2X  HAL2   0.090000        1.0079           0
   19311 O1   53   DMPC H2Y  HAL2   0.090000        1.0079           0
   19312 O1   53   DMPC C23  CTL2  -0.180000       12.0107           0
   19313 O1   53   DMPC H3R  HAL2   0.090000        1.0079           0
   19314 O1   53   DMPC H3S  HAL2   0.090000        1.0079           0
   19315 O1   53   DMPC C24  CTL2  -0.180000       12.0107           0
   19316 O1   53   DMPC H4R  HAL2   0.090000        1.0079           0
   19317 O1   53   DMPC H4S  HAL2   0.090000        1.0079           0
   19318 O1   53   DMPC C25  CTL2  -0.180000       12.0107           0
   19319 O1   53   DMPC H5R  HAL2   0.090000        1.0079           0
   19320 O1   53   DMPC H5S  HAL2   0.090000        1.0079           0
   19321 O1   53   DMPC C26  CTL2  -0.180000       12.0107           0
   19322 O1   53   DMPC H6R  HAL2   0.090000        1.0079           0
   19323 O1   53   DMPC H6S  HAL2   0.090000        1.0079           0
   19324 O1   53   DMPC C27  CTL2  -0.180000       12.0107           0
   19325 O1   53   DMPC H7R  HAL2   0.090000        1.0079           0
   19326 O1   53   DMPC H7S  HAL2   0.090000        1.0079           0
   19327 O1   53   DMPC C28  CTL2  -0.180000       12.0107           0
   19328 O1   53   DMPC H8R  HAL2   0.090000        1.0079           0
   19329 O1   53   DMPC H8S  HAL2   0.090000        1.0079           0
   19330 O1   53   DMPC C29  CTL2  -0.180000       12.0107           0
   19331 O1   53   DMPC H9R  HAL2   0.090000        1.0079           0
   19332 O1   53   DMPC H9S  HAL2   0.090000        1.0079           0
   19333 O1   53   DMPC C210 CTL2  -0.180000       12.0107           0
   19334 O1   53   DMPC H10R HAL2   0.090000        1.0079           0
   19335 O1   53   DMPC H10S HAL2   0.090000        1.0079           0
   19336 O1   53   DMPC C211 CTL2  -0.180000       12.0107           0
   19337 O1   53   DMPC H11R HAL2   0.090000        1.0079           0
   19338 O1   53   DMPC H11S HAL2   0.090000        1.0079           0
   19339 O1   53   DMPC C212 CTL2  -0.180000       12.0107           0
   19340 O1   53   DMPC H12R HAL2   0.090000        1.0079           0
   19341 O1   53   DMPC H12S HAL2   0.090000        1.0079           0
   19342 O1   53   DMPC C213 CTL2  -0.180000       12.0107           0
   19343 O1   53   DMPC H13R HAL2   0.090000        1.0079           0
   19344 O1   53   DMPC H13S HAL2   0.090000        1.0079           0
   19345 O1   53   DMPC C214 CTL3  -0.270000       12.0107           0
   19346 O1   53   DMPC H14R HAL3   0.090000        1.0079           0
   19347 O1   53   DMPC H14S HAL3   0.090000        1.0079           0
   19348 O1   53   DMPC H14T HAL3   0.090000        1.0079           0
   19349 O1   53   DMPC C33  CTL2  -0.180000       12.0107           0
   19350 O1   53   DMPC H3X  HAL2   0.090000        1.0079           0
   19351 O1   53   DMPC H3Y  HAL2   0.090000        1.0079           0
   19352 O1   53   DMPC C34  CTL2  -0.180000       12.0107           0
   19353 O1   53   DMPC H4X  HAL2   0.090000        1.0079           0
   19354 O1   53   DMPC H4Y  HAL2   0.090000        1.0079           0
   19355 O1   53   DMPC C35  CTL2  -0.180000       12.0107           0
   19356 O1   53   DMPC H5X  HAL2   0.090000        1.0079           0
   19357 O1   53   DMPC H5Y  HAL2   0.090000        1.0079           0
   19358 O1   53   DMPC C36  CTL2  -0.180000       12.0107           0
   19359 O1   53   DMPC H6X  HAL2   0.090000        1.0079           0
   19360 O1   53   DMPC H6Y  HAL2   0.090000        1.0079           0
   19361 O1   53   DMPC C37  CTL2  -0.180000       12.0107           0
   19362 O1   53   DMPC H7X  HAL2   0.090000        1.0079           0
   19363 O1   53   DMPC H7Y  HAL2   0.090000        1.0079           0
   19364 O1   53   DMPC C38  CTL2  -0.180000       12.0107           0
   19365 O1   53   DMPC H8X  HAL2   0.090000        1.0079           0
   19366 O1   53   DMPC H8Y  HAL2   0.090000        1.0079           0
   19367 O1   53   DMPC C39  CTL2  -0.180000       12.0107           0
   19368 O1   53   DMPC H9X  HAL2   0.090000        1.0079           0
   19369 O1   53   DMPC H9Y  HAL2   0.090000        1.0079           0
   19370 O1   53   DMPC C310 CTL2  -0.180000       12.0107           0
   19371 O1   53   DMPC H10X HAL2   0.090000        1.0079           0
   19372 O1   53   DMPC H10Y HAL2   0.090000        1.0079           0
   19373 O1   53   DMPC C311 CTL2  -0.180000       12.0107           0
   19374 O1   53   DMPC H11X HAL2   0.090000        1.0079           0
   19375 O1   53   DMPC H11Y HAL2   0.090000        1.0079           0
   19376 O1   53   DMPC C312 CTL2  -0.180000       12.0107           0
   19377 O1   53   DMPC H12X HAL2   0.090000        1.0079           0
   19378 O1   53   DMPC H12Y HAL2   0.090000        1.0079           0
   19379 O1   53   DMPC C313 CTL2  -0.180000       12.0107           0
   19380 O1   53   DMPC H13X HAL2   0.090000        1.0079           0
   19381 O1   53   DMPC H13Y HAL2   0.090000        1.0079           0
   19382 O1   53   DMPC C314 CTL3  -0.270000       12.0107           0
   19383 O1   53   DMPC H14X HAL3   0.090000        1.0079           0
   19384 O1   53   DMPC H14Y HAL3   0.090000        1.0079           0
   19385 O1   53   DMPC H14Z HAL3   0.090000        1.0079           0
   19386 O1   54   DMPC N    NTL   -0.600000       14.0067           0
   19387 O1   54   DMPC C13  CTL5  -0.350000       12.0107           0
   19388 O1   54   DMPC H13A HL     0.250000        1.0079           0
   19389 O1   54   DMPC H13B HL     0.250000        1.0079           0
   19390 O1   54   DMPC H13C HL     0.250000        1.0079           0
   19391 O1   54   DMPC C14  CTL5  -0.350000       12.0107           0
   19392 O1   54   DMPC H14A HL     0.250000        1.0079           0
   19393 O1   54   DMPC H14B HL     0.250000        1.0079           0
   19394 O1   54   DMPC H14C HL     0.250000        1.0079           0
   19395 O1   54   DMPC C15  CTL5  -0.350000       12.0107           0
   19396 O1   54   DMPC H15A HL     0.250000        1.0079           0
   19397 O1   54   DMPC H15B HL     0.250000        1.0079           0
   19398 O1   54   DMPC H15C HL     0.250000        1.0079           0
   19399 O1   54   DMPC C12  CTL2  -0.100000       12.0107           0
   19400 O1   54   DMPC H12A HL     0.250000        1.0079           0
   19401 O1   54   DMPC H12B HL     0.250000        1.0079           0
   19402 O1   54   DMPC C11  CTL2  -0.080000       12.0107           0
   19403 O1   54   DMPC H11A HAL2   0.090000        1.0079           0
   19404 O1   54   DMPC H11B HAL2   0.090000        1.0079           0
   19405 O1   54   DMPC P    PL     1.500000       30.9738           0
   19406 O1   54   DMPC O13  O2L   -0.780000       15.9994           0
   19407 O1   54   DMPC O14  O2L   -0.780000       15.9994           0
   19408 O1   54   DMPC O11  OSLP  -0.570000       15.9994           0
   19409 O1   54   DMPC O12  OSLP  -0.570000       15.9994           0
   19410 O1   54   DMPC C1   CTL2  -0.080000       12.0107           0
   19411 O1   54   DMPC HA   HAL2   0.090000        1.0079           0
   19412 O1   54   DMPC HB   HAL2   0.090000        1.0079           0
   19413 O1   54   DMPC C2   CTL1   0.170000       12.0107           0
   19414 O1   54   DMPC HS   HAL1   0.090000        1.0079           0
   19415 O1   54   DMPC O21  OSL   -0.490000       15.9994           0
   19416 O1   54   DMPC C21  CL     0.900000       12.0107           0
   19417 O1   54   DMPC O22  OBL   -0.630000       15.9994           0
   19418 O1   54   DMPC C22  CTL2  -0.220000       12.0107           0
   19419 O1   54   DMPC H2R  HAL2   0.090000        1.0079           0
   19420 O1   54   DMPC H2S  HAL2   0.090000        1.0079           0
   19421 O1   54   DMPC C3   CTL2   0.080000       12.0107           0
   19422 O1   54   DMPC HX   HAL2   0.090000        1.0079           0
   19423 O1   54   DMPC HY   HAL2   0.090000        1.0079           0
   19424 O1   54   DMPC O31  OSL   -0.490000       15.9994           0
   19425 O1   54   DMPC C31  CL     0.900000       12.0107           0
   19426 O1   54   DMPC O32  OBL   -0.630000       15.9994           0
   19427 O1   54   DMPC C32  CTL2  -0.220000       12.0107           0
   19428 O1   54   DMPC H2X  HAL2   0.090000        1.0079           0
   19429 O1   54   DMPC H2Y  HAL2   0.090000        1.0079           0
   19430 O1   54   DMPC C23  CTL2  -0.180000       12.0107           0
   19431 O1   54   DMPC H3R  HAL2   0.090000        1.0079           0
   19432 O1   54   DMPC H3S  HAL2   0.090000        1.0079           0
   19433 O1   54   DMPC C24  CTL2  -0.180000       12.0107           0
   19434 O1   54   DMPC H4R  HAL2   0.090000        1.0079           0
   19435 O1   54   DMPC H4S  HAL2   0.090000        1.0079           0
   19436 O1   54   DMPC C25  CTL2  -0.180000       12.0107           0
   19437 O1   54   DMPC H5R  HAL2   0.090000        1.0079           0
   19438 O1   54   DMPC H5S  HAL2   0.090000        1.0079           0
   19439 O1   54   DMPC C26  CTL2  -0.180000       12.0107           0
   19440 O1   54   DMPC H6R  HAL2   0.090000        1.0079           0
   19441 O1   54   DMPC H6S  HAL2   0.090000        1.0079           0
   19442 O1   54   DMPC C27  CTL2  -0.180000       12.0107           0
   19443 O1   54   DMPC H7R  HAL2   0.090000        1.0079           0
   19444 O1   54   DMPC H7S  HAL2   0.090000        1.0079           0
   19445 O1   54   DMPC C28  CTL2  -0.180000       12.0107           0
   19446 O1   54   DMPC H8R  HAL2   0.090000        1.0079           0
   19447 O1   54   DMPC H8S  HAL2   0.090000        1.0079           0
   19448 O1   54   DMPC C29  CTL2  -0.180000       12.0107           0
   19449 O1   54   DMPC H9R  HAL2   0.090000        1.0079           0
   19450 O1   54   DMPC H9S  HAL2   0.090000        1.0079           0
   19451 O1   54   DMPC C210 CTL2  -0.180000       12.0107           0
   19452 O1   54   DMPC H10R HAL2   0.090000        1.0079           0
   19453 O1   54   DMPC H10S HAL2   0.090000        1.0079           0
   19454 O1   54   DMPC C211 CTL2  -0.180000       12.0107           0
   19455 O1   54   DMPC H11R HAL2   0.090000        1.0079           0
   19456 O1   54   DMPC H11S HAL2   0.090000        1.0079           0
   19457 O1   54   DMPC C212 CTL2  -0.180000       12.0107           0
   19458 O1   54   DMPC H12R HAL2   0.090000        1.0079           0
   19459 O1   54   DMPC H12S HAL2   0.090000        1.0079           0
   19460 O1   54   DMPC C213 CTL2  -0.180000       12.0107           0
   19461 O1   54   DMPC H13R HAL2   0.090000        1.0079           0
   19462 O1   54   DMPC H13S HAL2   0.090000        1.0079           0
   19463 O1   54   DMPC C214 CTL3  -0.270000       12.0107           0
   19464 O1   54   DMPC H14R HAL3   0.090000        1.0079           0
   19465 O1   54   DMPC H14S HAL3   0.090000        1.0079           0
   19466 O1   54   DMPC H14T HAL3   0.090000        1.0079           0
   19467 O1   54   DMPC C33  CTL2  -0.180000       12.0107           0
   19468 O1   54   DMPC H3X  HAL2   0.090000        1.0079           0
   19469 O1   54   DMPC H3Y  HAL2   0.090000        1.0079           0
   19470 O1   54   DMPC C34  CTL2  -0.180000       12.0107           0
   19471 O1   54   DMPC H4X  HAL2   0.090000        1.0079           0
   19472 O1   54   DMPC H4Y  HAL2   0.090000        1.0079           0
   19473 O1   54   DMPC C35  CTL2  -0.180000       12.0107           0
   19474 O1   54   DMPC H5X  HAL2   0.090000        1.0079           0
   19475 O1   54   DMPC H5Y  HAL2   0.090000        1.0079           0
   19476 O1   54   DMPC C36  CTL2  -0.180000       12.0107           0
   19477 O1   54   DMPC H6X  HAL2   0.090000        1.0079           0
   19478 O1   54   DMPC H6Y  HAL2   0.090000        1.0079           0
   19479 O1   54   DMPC C37  CTL2  -0.180000       12.0107           0
   19480 O1   54   DMPC H7X  HAL2   0.090000        1.0079           0
   19481 O1   54   DMPC H7Y  HAL2   0.090000        1.0079           0
   19482 O1   54   DMPC C38  CTL2  -0.180000       12.0107           0
   19483 O1   54   DMPC H8X  HAL2   0.090000        1.0079           0
   19484 O1   54   DMPC H8Y  HAL2   0.090000        1.0079           0
   19485 O1   54   DMPC C39  CTL2  -0.180000       12.0107           0
   19486 O1   54   DMPC H9X  HAL2   0.090000        1.0079           0
   19487 O1   54   DMPC H9Y  HAL2   0.090000        1.0079           0
   19488 O1   54   DMPC C310 CTL2  -0.180000       12.0107           0
   19489 O1   54   DMPC H10X HAL2   0.090000        1.0079           0
   19490 O1   54   DMPC H10Y HAL2   0.090000        1.0079           0
   19491 O1   54   DMPC C311 CTL2  -0.180000       12.0107           0
   19492 O1   54   DMPC H11X HAL2   0.090000        1.0079           0
   19493 O1   54   DMPC H11Y HAL2   0.090000        1.0079           0
   19494 O1   54   DMPC C312 CTL2  -0.180000       12.0107           0
   19495 O1   54   DMPC H12X HAL2   0.090000        1.0079           0
   19496 O1   54   DMPC H12Y HAL2   0.090000        1.0079           0
   19497 O1   54   DMPC C313 CTL2  -0.180000       12.0107           0
   19498 O1   54   DMPC H13X HAL2   0.090000        1.0079           0
   19499 O1   54   DMPC H13Y HAL2   0.090000        1.0079           0
   19500 O1   54   DMPC C314 CTL3  -0.270000       12.0107           0
   19501 O1   54   DMPC H14X HAL3   0.090000        1.0079           0
   19502 O1   54   DMPC H14Y HAL3   0.090000        1.0079           0
   19503 O1   54   DMPC H14Z HAL3   0.090000        1.0079           0
   19504 O1   55   DMPC N    NTL   -0.600000       14.0067           0
   19505 O1   55   DMPC C13  CTL5  -0.350000       12.0107           0
   19506 O1   55   DMPC H13A HL     0.250000        1.0079           0
   19507 O1   55   DMPC H13B HL     0.250000        1.0079           0
   19508 O1   55   DMPC H13C HL     0.250000        1.0079           0
   19509 O1   55   DMPC C14  CTL5  -0.350000       12.0107           0
   19510 O1   55   DMPC H14A HL     0.250000        1.0079           0
   19511 O1   55   DMPC H14B HL     0.250000        1.0079           0
   19512 O1   55   DMPC H14C HL     0.250000        1.0079           0
   19513 O1   55   DMPC C15  CTL5  -0.350000       12.0107           0
   19514 O1   55   DMPC H15A HL     0.250000        1.0079           0
   19515 O1   55   DMPC H15B HL     0.250000        1.0079           0
   19516 O1   55   DMPC H15C HL     0.250000        1.0079           0
   19517 O1   55   DMPC C12  CTL2  -0.100000       12.0107           0
   19518 O1   55   DMPC H12A HL     0.250000        1.0079           0
   19519 O1   55   DMPC H12B HL     0.250000        1.0079           0
   19520 O1   55   DMPC C11  CTL2  -0.080000       12.0107           0
   19521 O1   55   DMPC H11A HAL2   0.090000        1.0079           0
   19522 O1   55   DMPC H11B HAL2   0.090000        1.0079           0
   19523 O1   55   DMPC P    PL     1.500000       30.9738           0
   19524 O1   55   DMPC O13  O2L   -0.780000       15.9994           0
   19525 O1   55   DMPC O14  O2L   -0.780000       15.9994           0
   19526 O1   55   DMPC O11  OSLP  -0.570000       15.9994           0
   19527 O1   55   DMPC O12  OSLP  -0.570000       15.9994           0
   19528 O1   55   DMPC C1   CTL2  -0.080000       12.0107           0
   19529 O1   55   DMPC HA   HAL2   0.090000        1.0079           0
   19530 O1   55   DMPC HB   HAL2   0.090000        1.0079           0
   19531 O1   55   DMPC C2   CTL1   0.170000       12.0107           0
   19532 O1   55   DMPC HS   HAL1   0.090000        1.0079           0
   19533 O1   55   DMPC O21  OSL   -0.490000       15.9994           0
   19534 O1   55   DMPC C21  CL     0.900000       12.0107           0
   19535 O1   55   DMPC O22  OBL   -0.630000       15.9994           0
   19536 O1   55   DMPC C22  CTL2  -0.220000       12.0107           0
   19537 O1   55   DMPC H2R  HAL2   0.090000        1.0079           0
   19538 O1   55   DMPC H2S  HAL2   0.090000        1.0079           0
   19539 O1   55   DMPC C3   CTL2   0.080000       12.0107           0
   19540 O1   55   DMPC HX   HAL2   0.090000        1.0079           0
   19541 O1   55   DMPC HY   HAL2   0.090000        1.0079           0
   19542 O1   55   DMPC O31  OSL   -0.490000       15.9994           0
   19543 O1   55   DMPC C31  CL     0.900000       12.0107           0
   19544 O1   55   DMPC O32  OBL   -0.630000       15.9994           0
   19545 O1   55   DMPC C32  CTL2  -0.220000       12.0107           0
   19546 O1   55   DMPC H2X  HAL2   0.090000        1.0079           0
   19547 O1   55   DMPC H2Y  HAL2   0.090000        1.0079           0
   19548 O1   55   DMPC C23  CTL2  -0.180000       12.0107           0
   19549 O1   55   DMPC H3R  HAL2   0.090000        1.0079           0
   19550 O1   55   DMPC H3S  HAL2   0.090000        1.0079           0
   19551 O1   55   DMPC C24  CTL2  -0.180000       12.0107           0
   19552 O1   55   DMPC H4R  HAL2   0.090000        1.0079           0
   19553 O1   55   DMPC H4S  HAL2   0.090000        1.0079           0
   19554 O1   55   DMPC C25  CTL2  -0.180000       12.0107           0
   19555 O1   55   DMPC H5R  HAL2   0.090000        1.0079           0
   19556 O1   55   DMPC H5S  HAL2   0.090000        1.0079           0
   19557 O1   55   DMPC C26  CTL2  -0.180000       12.0107           0
   19558 O1   55   DMPC H6R  HAL2   0.090000        1.0079           0
   19559 O1   55   DMPC H6S  HAL2   0.090000        1.0079           0
   19560 O1   55   DMPC C27  CTL2  -0.180000       12.0107           0
   19561 O1   55   DMPC H7R  HAL2   0.090000        1.0079           0
   19562 O1   55   DMPC H7S  HAL2   0.090000        1.0079           0
   19563 O1   55   DMPC C28  CTL2  -0.180000       12.0107           0
   19564 O1   55   DMPC H8R  HAL2   0.090000        1.0079           0
   19565 O1   55   DMPC H8S  HAL2   0.090000        1.0079           0
   19566 O1   55   DMPC C29  CTL2  -0.180000       12.0107           0
   19567 O1   55   DMPC H9R  HAL2   0.090000        1.0079           0
   19568 O1   55   DMPC H9S  HAL2   0.090000        1.0079           0
   19569 O1   55   DMPC C210 CTL2  -0.180000       12.0107           0
   19570 O1   55   DMPC H10R HAL2   0.090000        1.0079           0
   19571 O1   55   DMPC H10S HAL2   0.090000        1.0079           0
   19572 O1   55   DMPC C211 CTL2  -0.180000       12.0107           0
   19573 O1   55   DMPC H11R HAL2   0.090000        1.0079           0
   19574 O1   55   DMPC H11S HAL2   0.090000        1.0079           0
   19575 O1   55   DMPC C212 CTL2  -0.180000       12.0107           0
   19576 O1   55   DMPC H12R HAL2   0.090000        1.0079           0
   19577 O1   55   DMPC H12S HAL2   0.090000        1.0079           0
   19578 O1   55   DMPC C213 CTL2  -0.180000       12.0107           0
   19579 O1   55   DMPC H13R HAL2   0.090000        1.0079           0
   19580 O1   55   DMPC H13S HAL2   0.090000        1.0079           0
   19581 O1   55   DMPC C214 CTL3  -0.270000       12.0107           0
   19582 O1   55   DMPC H14R HAL3   0.090000        1.0079           0
   19583 O1   55   DMPC H14S HAL3   0.090000        1.0079           0
   19584 O1   55   DMPC H14T HAL3   0.090000        1.0079           0
   19585 O1   55   DMPC C33  CTL2  -0.180000       12.0107           0
   19586 O1   55   DMPC H3X  HAL2   0.090000        1.0079           0
   19587 O1   55   DMPC H3Y  HAL2   0.090000        1.0079           0
   19588 O1   55   DMPC C34  CTL2  -0.180000       12.0107           0
   19589 O1   55   DMPC H4X  HAL2   0.090000        1.0079           0
   19590 O1   55   DMPC H4Y  HAL2   0.090000        1.0079           0
   19591 O1   55   DMPC C35  CTL2  -0.180000       12.0107           0
   19592 O1   55   DMPC H5X  HAL2   0.090000        1.0079           0
   19593 O1   55   DMPC H5Y  HAL2   0.090000        1.0079           0
   19594 O1   55   DMPC C36  CTL2  -0.180000       12.0107           0
   19595 O1   55   DMPC H6X  HAL2   0.090000        1.0079           0
   19596 O1   55   DMPC H6Y  HAL2   0.090000        1.0079           0
   19597 O1   55   DMPC C37  CTL2  -0.180000       12.0107           0
   19598 O1   55   DMPC H7X  HAL2   0.090000        1.0079           0
   19599 O1   55   DMPC H7Y  HAL2   0.090000        1.0079           0
   19600 O1   55   DMPC C38  CTL2  -0.180000       12.0107           0
   19601 O1   55   DMPC H8X  HAL2   0.090000        1.0079           0
   19602 O1   55   DMPC H8Y  HAL2   0.090000        1.0079           0
   19603 O1   55   DMPC C39  CTL2  -0.180000       12.0107           0
   19604 O1   55   DMPC H9X  HAL2   0.090000        1.0079           0
   19605 O1   55   DMPC H9Y  HAL2   0.090000        1.0079           0
   19606 O1   55   DMPC C310 CTL2  -0.180000       12.0107           0
   19607 O1   55   DMPC H10X HAL2   0.090000        1.0079           0
   19608 O1   55   DMPC H10Y HAL2   0.090000        1.0079           0
   19609 O1   55   DMPC C311 CTL2  -0.180000       12.0107           0
   19610 O1   55   DMPC H11X HAL2   0.090000        1.0079           0
   19611 O1   55   DMPC H11Y HAL2   0.090000        1.0079           0
   19612 O1   55   DMPC C312 CTL2  -0.180000       12.0107           0
   19613 O1   55   DMPC H12X HAL2   0.090000        1.0079           0
   19614 O1   55   DMPC H12Y HAL2   0.090000        1.0079           0
   19615 O1   55   DMPC C313 CTL2  -0.180000       12.0107           0
   19616 O1   55   DMPC H13X HAL2   0.090000        1.0079           0
   19617 O1   55   DMPC H13Y HAL2   0.090000        1.0079           0
   19618 O1   55   DMPC C314 CTL3  -0.270000       12.0107           0
   19619 O1   55   DMPC H14X HAL3   0.090000        1.0079           0
   19620 O1   55   DMPC H14Y HAL3   0.090000        1.0079           0
   19621 O1   55   DMPC H14Z HAL3   0.090000        1.0079           0
   19622 O1   56   DMPC N    NTL   -0.600000       14.0067           0
   19623 O1   56   DMPC C13  CTL5  -0.350000       12.0107           0
   19624 O1   56   DMPC H13A HL     0.250000        1.0079           0
   19625 O1   56   DMPC H13B HL     0.250000        1.0079           0
   19626 O1   56   DMPC H13C HL     0.250000        1.0079           0
   19627 O1   56   DMPC C14  CTL5  -0.350000       12.0107           0
   19628 O1   56   DMPC H14A HL     0.250000        1.0079           0
   19629 O1   56   DMPC H14B HL     0.250000        1.0079           0
   19630 O1   56   DMPC H14C HL     0.250000        1.0079           0
   19631 O1   56   DMPC C15  CTL5  -0.350000       12.0107           0
   19632 O1   56   DMPC H15A HL     0.250000        1.0079           0
   19633 O1   56   DMPC H15B HL     0.250000        1.0079           0
   19634 O1   56   DMPC H15C HL     0.250000        1.0079           0
   19635 O1   56   DMPC C12  CTL2  -0.100000       12.0107           0
   19636 O1   56   DMPC H12A HL     0.250000        1.0079           0
   19637 O1   56   DMPC H12B HL     0.250000        1.0079           0
   19638 O1   56   DMPC C11  CTL2  -0.080000       12.0107           0
   19639 O1   56   DMPC H11A HAL2   0.090000        1.0079           0
   19640 O1   56   DMPC H11B HAL2   0.090000        1.0079           0
   19641 O1   56   DMPC P    PL     1.500000       30.9738           0
   19642 O1   56   DMPC O13  O2L   -0.780000       15.9994           0
   19643 O1   56   DMPC O14  O2L   -0.780000       15.9994           0
   19644 O1   56   DMPC O11  OSLP  -0.570000       15.9994           0
   19645 O1   56   DMPC O12  OSLP  -0.570000       15.9994           0
   19646 O1   56   DMPC C1   CTL2  -0.080000       12.0107           0
   19647 O1   56   DMPC HA   HAL2   0.090000        1.0079           0
   19648 O1   56   DMPC HB   HAL2   0.090000        1.0079           0
   19649 O1   56   DMPC C2   CTL1   0.170000       12.0107           0
   19650 O1   56   DMPC HS   HAL1   0.090000        1.0079           0
   19651 O1   56   DMPC O21  OSL   -0.490000       15.9994           0
   19652 O1   56   DMPC C21  CL     0.900000       12.0107           0
   19653 O1   56   DMPC O22  OBL   -0.630000       15.9994           0
   19654 O1   56   DMPC C22  CTL2  -0.220000       12.0107           0
   19655 O1   56   DMPC H2R  HAL2   0.090000        1.0079           0
   19656 O1   56   DMPC H2S  HAL2   0.090000        1.0079           0
   19657 O1   56   DMPC C3   CTL2   0.080000       12.0107           0
   19658 O1   56   DMPC HX   HAL2   0.090000        1.0079           0
   19659 O1   56   DMPC HY   HAL2   0.090000        1.0079           0
   19660 O1   56   DMPC O31  OSL   -0.490000       15.9994           0
   19661 O1   56   DMPC C31  CL     0.900000       12.0107           0
   19662 O1   56   DMPC O32  OBL   -0.630000       15.9994           0
   19663 O1   56   DMPC C32  CTL2  -0.220000       12.0107           0
   19664 O1   56   DMPC H2X  HAL2   0.090000        1.0079           0
   19665 O1   56   DMPC H2Y  HAL2   0.090000        1.0079           0
   19666 O1   56   DMPC C23  CTL2  -0.180000       12.0107           0
   19667 O1   56   DMPC H3R  HAL2   0.090000        1.0079           0
   19668 O1   56   DMPC H3S  HAL2   0.090000        1.0079           0
   19669 O1   56   DMPC C24  CTL2  -0.180000       12.0107           0
   19670 O1   56   DMPC H4R  HAL2   0.090000        1.0079           0
   19671 O1   56   DMPC H4S  HAL2   0.090000        1.0079           0
   19672 O1   56   DMPC C25  CTL2  -0.180000       12.0107           0
   19673 O1   56   DMPC H5R  HAL2   0.090000        1.0079           0
   19674 O1   56   DMPC H5S  HAL2   0.090000        1.0079           0
   19675 O1   56   DMPC C26  CTL2  -0.180000       12.0107           0
   19676 O1   56   DMPC H6R  HAL2   0.090000        1.0079           0
   19677 O1   56   DMPC H6S  HAL2   0.090000        1.0079           0
   19678 O1   56   DMPC C27  CTL2  -0.180000       12.0107           0
   19679 O1   56   DMPC H7R  HAL2   0.090000        1.0079           0
   19680 O1   56   DMPC H7S  HAL2   0.090000        1.0079           0
   19681 O1   56   DMPC C28  CTL2  -0.180000       12.0107           0
   19682 O1   56   DMPC H8R  HAL2   0.090000        1.0079           0
   19683 O1   56   DMPC H8S  HAL2   0.090000        1.0079           0
   19684 O1   56   DMPC C29  CTL2  -0.180000       12.0107           0
   19685 O1   56   DMPC H9R  HAL2   0.090000        1.0079           0
   19686 O1   56   DMPC H9S  HAL2   0.090000        1.0079           0
   19687 O1   56   DMPC C210 CTL2  -0.180000       12.0107           0
   19688 O1   56   DMPC H10R HAL2   0.090000        1.0079           0
   19689 O1   56   DMPC H10S HAL2   0.090000        1.0079           0
   19690 O1   56   DMPC C211 CTL2  -0.180000       12.0107           0
   19691 O1   56   DMPC H11R HAL2   0.090000        1.0079           0
   19692 O1   56   DMPC H11S HAL2   0.090000        1.0079           0
   19693 O1   56   DMPC C212 CTL2  -0.180000       12.0107           0
   19694 O1   56   DMPC H12R HAL2   0.090000        1.0079           0
   19695 O1   56   DMPC H12S HAL2   0.090000        1.0079           0
   19696 O1   56   DMPC C213 CTL2  -0.180000       12.0107           0
   19697 O1   56   DMPC H13R HAL2   0.090000        1.0079           0
   19698 O1   56   DMPC H13S HAL2   0.090000        1.0079           0
   19699 O1   56   DMPC C214 CTL3  -0.270000       12.0107           0
   19700 O1   56   DMPC H14R HAL3   0.090000        1.0079           0
   19701 O1   56   DMPC H14S HAL3   0.090000        1.0079           0
   19702 O1   56   DMPC H14T HAL3   0.090000        1.0079           0
   19703 O1   56   DMPC C33  CTL2  -0.180000       12.0107           0
   19704 O1   56   DMPC H3X  HAL2   0.090000        1.0079           0
   19705 O1   56   DMPC H3Y  HAL2   0.090000        1.0079           0
   19706 O1   56   DMPC C34  CTL2  -0.180000       12.0107           0
   19707 O1   56   DMPC H4X  HAL2   0.090000        1.0079           0
   19708 O1   56   DMPC H4Y  HAL2   0.090000        1.0079           0
   19709 O1   56   DMPC C35  CTL2  -0.180000       12.0107           0
   19710 O1   56   DMPC H5X  HAL2   0.090000        1.0079           0
   19711 O1   56   DMPC H5Y  HAL2   0.090000        1.0079           0
   19712 O1   56   DMPC C36  CTL2  -0.180000       12.0107           0
   19713 O1   56   DMPC H6X  HAL2   0.090000        1.0079           0
   19714 O1   56   DMPC H6Y  HAL2   0.090000        1.0079           0
   19715 O1   56   DMPC C37  CTL2  -0.180000       12.0107           0
   19716 O1   56   DMPC H7X  HAL2   0.090000        1.0079           0
   19717 O1   56   DMPC H7Y  HAL2   0.090000        1.0079           0
   19718 O1   56   DMPC C38  CTL2  -0.180000       12.0107           0
   19719 O1   56   DMPC H8X  HAL2   0.090000        1.0079           0
   19720 O1   56   DMPC H8Y  HAL2   0.090000        1.0079           0
   19721 O1   56   DMPC C39  CTL2  -0.180000       12.0107           0
   19722 O1   56   DMPC H9X  HAL2   0.090000        1.0079           0
   19723 O1   56   DMPC H9Y  HAL2   0.090000        1.0079           0
   19724 O1   56   DMPC C310 CTL2  -0.180000       12.0107           0
   19725 O1   56   DMPC H10X HAL2   0.090000        1.0079           0
   19726 O1   56   DMPC H10Y HAL2   0.090000        1.0079           0
   19727 O1   56   DMPC C311 CTL2  -0.180000       12.0107           0
   19728 O1   56   DMPC H11X HAL2   0.090000        1.0079           0
   19729 O1   56   DMPC H11Y HAL2   0.090000        1.0079           0
   19730 O1   56   DMPC C312 CTL2  -0.180000       12.0107           0
   19731 O1   56   DMPC H12X HAL2   0.090000        1.0079           0
   19732 O1   56   DMPC H12Y HAL2   0.090000        1.0079           0
   19733 O1   56   DMPC C313 CTL2  -0.180000       12.0107           0
   19734 O1   56   DMPC H13X HAL2   0.090000        1.0079           0
   19735 O1   56   DMPC H13Y HAL2   0.090000        1.0079           0
   19736 O1   56   DMPC C314 CTL3  -0.270000       12.0107           0
   19737 O1   56   DMPC H14X HAL3   0.090000        1.0079           0
   19738 O1   56   DMPC H14Y HAL3   0.090000        1.0079           0
   19739 O1   56   DMPC H14Z HAL3   0.090000        1.0079           0
   19740 O1   57   DMPC N    NTL   -0.600000       14.0067           0
   19741 O1   57   DMPC C13  CTL5  -0.350000       12.0107           0
   19742 O1   57   DMPC H13A HL     0.250000        1.0079           0
   19743 O1   57   DMPC H13B HL     0.250000        1.0079           0
   19744 O1   57   DMPC H13C HL     0.250000        1.0079           0
   19745 O1   57   DMPC C14  CTL5  -0.350000       12.0107           0
   19746 O1   57   DMPC H14A HL     0.250000        1.0079           0
   19747 O1   57   DMPC H14B HL     0.250000        1.0079           0
   19748 O1   57   DMPC H14C HL     0.250000        1.0079           0
   19749 O1   57   DMPC C15  CTL5  -0.350000       12.0107           0
   19750 O1   57   DMPC H15A HL     0.250000        1.0079           0
   19751 O1   57   DMPC H15B HL     0.250000        1.0079           0
   19752 O1   57   DMPC H15C HL     0.250000        1.0079           0
   19753 O1   57   DMPC C12  CTL2  -0.100000       12.0107           0
   19754 O1   57   DMPC H12A HL     0.250000        1.0079           0
   19755 O1   57   DMPC H12B HL     0.250000        1.0079           0
   19756 O1   57   DMPC C11  CTL2  -0.080000       12.0107           0
   19757 O1   57   DMPC H11A HAL2   0.090000        1.0079           0
   19758 O1   57   DMPC H11B HAL2   0.090000        1.0079           0
   19759 O1   57   DMPC P    PL     1.500000       30.9738           0
   19760 O1   57   DMPC O13  O2L   -0.780000       15.9994           0
   19761 O1   57   DMPC O14  O2L   -0.780000       15.9994           0
   19762 O1   57   DMPC O11  OSLP  -0.570000       15.9994           0
   19763 O1   57   DMPC O12  OSLP  -0.570000       15.9994           0
   19764 O1   57   DMPC C1   CTL2  -0.080000       12.0107           0
   19765 O1   57   DMPC HA   HAL2   0.090000        1.0079           0
   19766 O1   57   DMPC HB   HAL2   0.090000        1.0079           0
   19767 O1   57   DMPC C2   CTL1   0.170000       12.0107           0
   19768 O1   57   DMPC HS   HAL1   0.090000        1.0079           0
   19769 O1   57   DMPC O21  OSL   -0.490000       15.9994           0
   19770 O1   57   DMPC C21  CL     0.900000       12.0107           0
   19771 O1   57   DMPC O22  OBL   -0.630000       15.9994           0
   19772 O1   57   DMPC C22  CTL2  -0.220000       12.0107           0
   19773 O1   57   DMPC H2R  HAL2   0.090000        1.0079           0
   19774 O1   57   DMPC H2S  HAL2   0.090000        1.0079           0
   19775 O1   57   DMPC C3   CTL2   0.080000       12.0107           0
   19776 O1   57   DMPC HX   HAL2   0.090000        1.0079           0
   19777 O1   57   DMPC HY   HAL2   0.090000        1.0079           0
   19778 O1   57   DMPC O31  OSL   -0.490000       15.9994           0
   19779 O1   57   DMPC C31  CL     0.900000       12.0107           0
   19780 O1   57   DMPC O32  OBL   -0.630000       15.9994           0
   19781 O1   57   DMPC C32  CTL2  -0.220000       12.0107           0
   19782 O1   57   DMPC H2X  HAL2   0.090000        1.0079           0
   19783 O1   57   DMPC H2Y  HAL2   0.090000        1.0079           0
   19784 O1   57   DMPC C23  CTL2  -0.180000       12.0107           0
   19785 O1   57   DMPC H3R  HAL2   0.090000        1.0079           0
   19786 O1   57   DMPC H3S  HAL2   0.090000        1.0079           0
   19787 O1   57   DMPC C24  CTL2  -0.180000       12.0107           0
   19788 O1   57   DMPC H4R  HAL2   0.090000        1.0079           0
   19789 O1   57   DMPC H4S  HAL2   0.090000        1.0079           0
   19790 O1   57   DMPC C25  CTL2  -0.180000       12.0107           0
   19791 O1   57   DMPC H5R  HAL2   0.090000        1.0079           0
   19792 O1   57   DMPC H5S  HAL2   0.090000        1.0079           0
   19793 O1   57   DMPC C26  CTL2  -0.180000       12.0107           0
   19794 O1   57   DMPC H6R  HAL2   0.090000        1.0079           0
   19795 O1   57   DMPC H6S  HAL2   0.090000        1.0079           0
   19796 O1   57   DMPC C27  CTL2  -0.180000       12.0107           0
   19797 O1   57   DMPC H7R  HAL2   0.090000        1.0079           0
   19798 O1   57   DMPC H7S  HAL2   0.090000        1.0079           0
   19799 O1   57   DMPC C28  CTL2  -0.180000       12.0107           0
   19800 O1   57   DMPC H8R  HAL2   0.090000        1.0079           0
   19801 O1   57   DMPC H8S  HAL2   0.090000        1.0079           0
   19802 O1   57   DMPC C29  CTL2  -0.180000       12.0107           0
   19803 O1   57   DMPC H9R  HAL2   0.090000        1.0079           0
   19804 O1   57   DMPC H9S  HAL2   0.090000        1.0079           0
   19805 O1   57   DMPC C210 CTL2  -0.180000       12.0107           0
   19806 O1   57   DMPC H10R HAL2   0.090000        1.0079           0
   19807 O1   57   DMPC H10S HAL2   0.090000        1.0079           0
   19808 O1   57   DMPC C211 CTL2  -0.180000       12.0107           0
   19809 O1   57   DMPC H11R HAL2   0.090000        1.0079           0
   19810 O1   57   DMPC H11S HAL2   0.090000        1.0079           0
   19811 O1   57   DMPC C212 CTL2  -0.180000       12.0107           0
   19812 O1   57   DMPC H12R HAL2   0.090000        1.0079           0
   19813 O1   57   DMPC H12S HAL2   0.090000        1.0079           0
   19814 O1   57   DMPC C213 CTL2  -0.180000       12.0107           0
   19815 O1   57   DMPC H13R HAL2   0.090000        1.0079           0
   19816 O1   57   DMPC H13S HAL2   0.090000        1.0079           0
   19817 O1   57   DMPC C214 CTL3  -0.270000       12.0107           0
   19818 O1   57   DMPC H14R HAL3   0.090000        1.0079           0
   19819 O1   57   DMPC H14S HAL3   0.090000        1.0079           0
   19820 O1   57   DMPC H14T HAL3   0.090000        1.0079           0
   19821 O1   57   DMPC C33  CTL2  -0.180000       12.0107           0
   19822 O1   57   DMPC H3X  HAL2   0.090000        1.0079           0
   19823 O1   57   DMPC H3Y  HAL2   0.090000        1.0079           0
   19824 O1   57   DMPC C34  CTL2  -0.180000       12.0107           0
   19825 O1   57   DMPC H4X  HAL2   0.090000        1.0079           0
   19826 O1   57   DMPC H4Y  HAL2   0.090000        1.0079           0
   19827 O1   57   DMPC C35  CTL2  -0.180000       12.0107           0
   19828 O1   57   DMPC H5X  HAL2   0.090000        1.0079           0
   19829 O1   57   DMPC H5Y  HAL2   0.090000        1.0079           0
   19830 O1   57   DMPC C36  CTL2  -0.180000       12.0107           0
   19831 O1   57   DMPC H6X  HAL2   0.090000        1.0079           0
   19832 O1   57   DMPC H6Y  HAL2   0.090000        1.0079           0
   19833 O1   57   DMPC C37  CTL2  -0.180000       12.0107           0
   19834 O1   57   DMPC H7X  HAL2   0.090000        1.0079           0
   19835 O1   57   DMPC H7Y  HAL2   0.090000        1.0079           0
   19836 O1   57   DMPC C38  CTL2  -0.180000       12.0107           0
   19837 O1   57   DMPC H8X  HAL2   0.090000        1.0079           0
   19838 O1   57   DMPC H8Y  HAL2   0.090000        1.0079           0
   19839 O1   57   DMPC C39  CTL2  -0.180000       12.0107           0
   19840 O1   57   DMPC H9X  HAL2   0.090000        1.0079           0
   19841 O1   57   DMPC H9Y  HAL2   0.090000        1.0079           0
   19842 O1   57   DMPC C310 CTL2  -0.180000       12.0107           0
   19843 O1   57   DMPC H10X HAL2   0.090000        1.0079           0
   19844 O1   57   DMPC H10Y HAL2   0.090000        1.0079           0
   19845 O1   57   DMPC C311 CTL2  -0.180000       12.0107           0
   19846 O1   57   DMPC H11X HAL2   0.090000        1.0079           0
   19847 O1   57   DMPC H11Y HAL2   0.090000        1.0079           0
   19848 O1   57   DMPC C312 CTL2  -0.180000       12.0107           0
   19849 O1   57   DMPC H12X HAL2   0.090000        1.0079           0
   19850 O1   57   DMPC H12Y HAL2   0.090000        1.0079           0
   19851 O1   57   DMPC C313 CTL2  -0.180000       12.0107           0
   19852 O1   57   DMPC H13X HAL2   0.090000        1.0079           0
   19853 O1   57   DMPC H13Y HAL2   0.090000        1.0079           0
   19854 O1   57   DMPC C314 CTL3  -0.270000       12.0107           0
   19855 O1   57   DMPC H14X HAL3   0.090000        1.0079           0
   19856 O1   57   DMPC H14Y HAL3   0.090000        1.0079           0
   19857 O1   57   DMPC H14Z HAL3   0.090000        1.0079           0
   19858 O1   58   DMPC N    NTL   -0.600000       14.0067           0
   19859 O1   58   DMPC C13  CTL5  -0.350000       12.0107           0
   19860 O1   58   DMPC H13A HL     0.250000        1.0079           0
   19861 O1   58   DMPC H13B HL     0.250000        1.0079           0
   19862 O1   58   DMPC H13C HL     0.250000        1.0079           0
   19863 O1   58   DMPC C14  CTL5  -0.350000       12.0107           0
   19864 O1   58   DMPC H14A HL     0.250000        1.0079           0
   19865 O1   58   DMPC H14B HL     0.250000        1.0079           0
   19866 O1   58   DMPC H14C HL     0.250000        1.0079           0
   19867 O1   58   DMPC C15  CTL5  -0.350000       12.0107           0
   19868 O1   58   DMPC H15A HL     0.250000        1.0079           0
   19869 O1   58   DMPC H15B HL     0.250000        1.0079           0
   19870 O1   58   DMPC H15C HL     0.250000        1.0079           0
   19871 O1   58   DMPC C12  CTL2  -0.100000       12.0107           0
   19872 O1   58   DMPC H12A HL     0.250000        1.0079           0
   19873 O1   58   DMPC H12B HL     0.250000        1.0079           0
   19874 O1   58   DMPC C11  CTL2  -0.080000       12.0107           0
   19875 O1   58   DMPC H11A HAL2   0.090000        1.0079           0
   19876 O1   58   DMPC H11B HAL2   0.090000        1.0079           0
   19877 O1   58   DMPC P    PL     1.500000       30.9738           0
   19878 O1   58   DMPC O13  O2L   -0.780000       15.9994           0
   19879 O1   58   DMPC O14  O2L   -0.780000       15.9994           0
   19880 O1   58   DMPC O11  OSLP  -0.570000       15.9994           0
   19881 O1   58   DMPC O12  OSLP  -0.570000       15.9994           0
   19882 O1   58   DMPC C1   CTL2  -0.080000       12.0107           0
   19883 O1   58   DMPC HA   HAL2   0.090000        1.0079           0
   19884 O1   58   DMPC HB   HAL2   0.090000        1.0079           0
   19885 O1   58   DMPC C2   CTL1   0.170000       12.0107           0
   19886 O1   58   DMPC HS   HAL1   0.090000        1.0079           0
   19887 O1   58   DMPC O21  OSL   -0.490000       15.9994           0
   19888 O1   58   DMPC C21  CL     0.900000       12.0107           0
   19889 O1   58   DMPC O22  OBL   -0.630000       15.9994           0
   19890 O1   58   DMPC C22  CTL2  -0.220000       12.0107           0
   19891 O1   58   DMPC H2R  HAL2   0.090000        1.0079           0
   19892 O1   58   DMPC H2S  HAL2   0.090000        1.0079           0
   19893 O1   58   DMPC C3   CTL2   0.080000       12.0107           0
   19894 O1   58   DMPC HX   HAL2   0.090000        1.0079           0
   19895 O1   58   DMPC HY   HAL2   0.090000        1.0079           0
   19896 O1   58   DMPC O31  OSL   -0.490000       15.9994           0
   19897 O1   58   DMPC C31  CL     0.900000       12.0107           0
   19898 O1   58   DMPC O32  OBL   -0.630000       15.9994           0
   19899 O1   58   DMPC C32  CTL2  -0.220000       12.0107           0
   19900 O1   58   DMPC H2X  HAL2   0.090000        1.0079           0
   19901 O1   58   DMPC H2Y  HAL2   0.090000        1.0079           0
   19902 O1   58   DMPC C23  CTL2  -0.180000       12.0107           0
   19903 O1   58   DMPC H3R  HAL2   0.090000        1.0079           0
   19904 O1   58   DMPC H3S  HAL2   0.090000        1.0079           0
   19905 O1   58   DMPC C24  CTL2  -0.180000       12.0107           0
   19906 O1   58   DMPC H4R  HAL2   0.090000        1.0079           0
   19907 O1   58   DMPC H4S  HAL2   0.090000        1.0079           0
   19908 O1   58   DMPC C25  CTL2  -0.180000       12.0107           0
   19909 O1   58   DMPC H5R  HAL2   0.090000        1.0079           0
   19910 O1   58   DMPC H5S  HAL2   0.090000        1.0079           0
   19911 O1   58   DMPC C26  CTL2  -0.180000       12.0107           0
   19912 O1   58   DMPC H6R  HAL2   0.090000        1.0079           0
   19913 O1   58   DMPC H6S  HAL2   0.090000        1.0079           0
   19914 O1   58   DMPC C27  CTL2  -0.180000       12.0107           0
   19915 O1   58   DMPC H7R  HAL2   0.090000        1.0079           0
   19916 O1   58   DMPC H7S  HAL2   0.090000        1.0079           0
   19917 O1   58   DMPC C28  CTL2  -0.180000       12.0107           0
   19918 O1   58   DMPC H8R  HAL2   0.090000        1.0079           0
   19919 O1   58   DMPC H8S  HAL2   0.090000        1.0079           0
   19920 O1   58   DMPC C29  CTL2  -0.180000       12.0107           0
   19921 O1   58   DMPC H9R  HAL2   0.090000        1.0079           0
   19922 O1   58   DMPC H9S  HAL2   0.090000        1.0079           0
   19923 O1   58   DMPC C210 CTL2  -0.180000       12.0107           0
   19924 O1   58   DMPC H10R HAL2   0.090000        1.0079           0
   19925 O1   58   DMPC H10S HAL2   0.090000        1.0079           0
   19926 O1   58   DMPC C211 CTL2  -0.180000       12.0107           0
   19927 O1   58   DMPC H11R HAL2   0.090000        1.0079           0
   19928 O1   58   DMPC H11S HAL2   0.090000        1.0079           0
   19929 O1   58   DMPC C212 CTL2  -0.180000       12.0107           0
   19930 O1   58   DMPC H12R HAL2   0.090000        1.0079           0
   19931 O1   58   DMPC H12S HAL2   0.090000        1.0079           0
   19932 O1   58   DMPC C213 CTL2  -0.180000       12.0107           0
   19933 O1   58   DMPC H13R HAL2   0.090000        1.0079           0
   19934 O1   58   DMPC H13S HAL2   0.090000        1.0079           0
   19935 O1   58   DMPC C214 CTL3  -0.270000       12.0107           0
   19936 O1   58   DMPC H14R HAL3   0.090000        1.0079           0
   19937 O1   58   DMPC H14S HAL3   0.090000        1.0079           0
   19938 O1   58   DMPC H14T HAL3   0.090000        1.0079           0
   19939 O1   58   DMPC C33  CTL2  -0.180000       12.0107           0
   19940 O1   58   DMPC H3X  HAL2   0.090000        1.0079           0
   19941 O1   58   DMPC H3Y  HAL2   0.090000        1.0079           0
   19942 O1   58   DMPC C34  CTL2  -0.180000       12.0107           0
   19943 O1   58   DMPC H4X  HAL2   0.090000        1.0079           0
   19944 O1   58   DMPC H4Y  HAL2   0.090000        1.0079           0
   19945 O1   58   DMPC C35  CTL2  -0.180000       12.0107           0
   19946 O1   58   DMPC H5X  HAL2   0.090000        1.0079           0
   19947 O1   58   DMPC H5Y  HAL2   0.090000        1.0079           0
   19948 O1   58   DMPC C36  CTL2  -0.180000       12.0107           0
   19949 O1   58   DMPC H6X  HAL2   0.090000        1.0079           0
   19950 O1   58   DMPC H6Y  HAL2   0.090000        1.0079           0
   19951 O1   58   DMPC C37  CTL2  -0.180000       12.0107           0
   19952 O1   58   DMPC H7X  HAL2   0.090000        1.0079           0
   19953 O1   58   DMPC H7Y  HAL2   0.090000        1.0079           0
   19954 O1   58   DMPC C38  CTL2  -0.180000       12.0107           0
   19955 O1   58   DMPC H8X  HAL2   0.090000        1.0079           0
   19956 O1   58   DMPC H8Y  HAL2   0.090000        1.0079           0
   19957 O1   58   DMPC C39  CTL2  -0.180000       12.0107           0
   19958 O1   58   DMPC H9X  HAL2   0.090000        1.0079           0
   19959 O1   58   DMPC H9Y  HAL2   0.090000        1.0079           0
   19960 O1   58   DMPC C310 CTL2  -0.180000       12.0107           0
   19961 O1   58   DMPC H10X HAL2   0.090000        1.0079           0
   19962 O1   58   DMPC H10Y HAL2   0.090000        1.0079           0
   19963 O1   58   DMPC C311 CTL2  -0.180000       12.0107           0
   19964 O1   58   DMPC H11X HAL2   0.090000        1.0079           0
   19965 O1   58   DMPC H11Y HAL2   0.090000        1.0079           0
   19966 O1   58   DMPC C312 CTL2  -0.180000       12.0107           0
   19967 O1   58   DMPC H12X HAL2   0.090000        1.0079           0
   19968 O1   58   DMPC H12Y HAL2   0.090000        1.0079           0
   19969 O1   58   DMPC C313 CTL2  -0.180000       12.0107           0
   19970 O1   58   DMPC H13X HAL2   0.090000        1.0079           0
   19971 O1   58   DMPC H13Y HAL2   0.090000        1.0079           0
   19972 O1   58   DMPC C314 CTL3  -0.270000       12.0107           0
   19973 O1   58   DMPC H14X HAL3   0.090000        1.0079           0
   19974 O1   58   DMPC H14Y HAL3   0.090000        1.0079           0
   19975 O1   58   DMPC H14Z HAL3   0.090000        1.0079           0
   19976 O1   59   DMPC N    NTL   -0.600000       14.0067           0
   19977 O1   59   DMPC C13  CTL5  -0.350000       12.0107           0
   19978 O1   59   DMPC H13A HL     0.250000        1.0079           0
   19979 O1   59   DMPC H13B HL     0.250000        1.0079           0
   19980 O1   59   DMPC H13C HL     0.250000        1.0079           0
   19981 O1   59   DMPC C14  CTL5  -0.350000       12.0107           0
   19982 O1   59   DMPC H14A HL     0.250000        1.0079           0
   19983 O1   59   DMPC H14B HL     0.250000        1.0079           0
   19984 O1   59   DMPC H14C HL     0.250000        1.0079           0
   19985 O1   59   DMPC C15  CTL5  -0.350000       12.0107           0
   19986 O1   59   DMPC H15A HL     0.250000        1.0079           0
   19987 O1   59   DMPC H15B HL     0.250000        1.0079           0
   19988 O1   59   DMPC H15C HL     0.250000        1.0079           0
   19989 O1   59   DMPC C12  CTL2  -0.100000       12.0107           0
   19990 O1   59   DMPC H12A HL     0.250000        1.0079           0
   19991 O1   59   DMPC H12B HL     0.250000        1.0079           0
   19992 O1   59   DMPC C11  CTL2  -0.080000       12.0107           0
   19993 O1   59   DMPC H11A HAL2   0.090000        1.0079           0
   19994 O1   59   DMPC H11B HAL2   0.090000        1.0079           0
   19995 O1   59   DMPC P    PL     1.500000       30.9738           0
   19996 O1   59   DMPC O13  O2L   -0.780000       15.9994           0
   19997 O1   59   DMPC O14  O2L   -0.780000       15.9994           0
   19998 O1   59   DMPC O11  OSLP  -0.570000       15.9994           0
   19999 O1   59   DMPC O12  OSLP  -0.570000       15.9994           0
   20000 O1   59   DMPC C1   CTL2  -0.080000       12.0107           0
   20001 O1   59   DMPC HA   HAL2   0.090000        1.0079           0
   20002 O1   59   DMPC HB   HAL2   0.090000        1.0079           0
   20003 O1   59   DMPC C2   CTL1   0.170000       12.0107           0
   20004 O1   59   DMPC HS   HAL1   0.090000        1.0079           0
   20005 O1   59   DMPC O21  OSL   -0.490000       15.9994           0
   20006 O1   59   DMPC C21  CL     0.900000       12.0107           0
   20007 O1   59   DMPC O22  OBL   -0.630000       15.9994           0
   20008 O1   59   DMPC C22  CTL2  -0.220000       12.0107           0
   20009 O1   59   DMPC H2R  HAL2   0.090000        1.0079           0
   20010 O1   59   DMPC H2S  HAL2   0.090000        1.0079           0
   20011 O1   59   DMPC C3   CTL2   0.080000       12.0107           0
   20012 O1   59   DMPC HX   HAL2   0.090000        1.0079           0
   20013 O1   59   DMPC HY   HAL2   0.090000        1.0079           0
   20014 O1   59   DMPC O31  OSL   -0.490000       15.9994           0
   20015 O1   59   DMPC C31  CL     0.900000       12.0107           0
   20016 O1   59   DMPC O32  OBL   -0.630000       15.9994           0
   20017 O1   59   DMPC C32  CTL2  -0.220000       12.0107           0
   20018 O1   59   DMPC H2X  HAL2   0.090000        1.0079           0
   20019 O1   59   DMPC H2Y  HAL2   0.090000        1.0079           0
   20020 O1   59   DMPC C23  CTL2  -0.180000       12.0107           0
   20021 O1   59   DMPC H3R  HAL2   0.090000        1.0079           0
   20022 O1   59   DMPC H3S  HAL2   0.090000        1.0079           0
   20023 O1   59   DMPC C24  CTL2  -0.180000       12.0107           0
   20024 O1   59   DMPC H4R  HAL2   0.090000        1.0079           0
   20025 O1   59   DMPC H4S  HAL2   0.090000        1.0079           0
   20026 O1   59   DMPC C25  CTL2  -0.180000       12.0107           0
   20027 O1   59   DMPC H5R  HAL2   0.090000        1.0079           0
   20028 O1   59   DMPC H5S  HAL2   0.090000        1.0079           0
   20029 O1   59   DMPC C26  CTL2  -0.180000       12.0107           0
   20030 O1   59   DMPC H6R  HAL2   0.090000        1.0079           0
   20031 O1   59   DMPC H6S  HAL2   0.090000        1.0079           0
   20032 O1   59   DMPC C27  CTL2  -0.180000       12.0107           0
   20033 O1   59   DMPC H7R  HAL2   0.090000        1.0079           0
   20034 O1   59   DMPC H7S  HAL2   0.090000        1.0079           0
   20035 O1   59   DMPC C28  CTL2  -0.180000       12.0107           0
   20036 O1   59   DMPC H8R  HAL2   0.090000        1.0079           0
   20037 O1   59   DMPC H8S  HAL2   0.090000        1.0079           0
   20038 O1   59   DMPC C29  CTL2  -0.180000       12.0107           0
   20039 O1   59   DMPC H9R  HAL2   0.090000        1.0079           0
   20040 O1   59   DMPC H9S  HAL2   0.090000        1.0079           0
   20041 O1   59   DMPC C210 CTL2  -0.180000       12.0107           0
   20042 O1   59   DMPC H10R HAL2   0.090000        1.0079           0
   20043 O1   59   DMPC H10S HAL2   0.090000        1.0079           0
   20044 O1   59   DMPC C211 CTL2  -0.180000       12.0107           0
   20045 O1   59   DMPC H11R HAL2   0.090000        1.0079           0
   20046 O1   59   DMPC H11S HAL2   0.090000        1.0079           0
   20047 O1   59   DMPC C212 CTL2  -0.180000       12.0107           0
   20048 O1   59   DMPC H12R HAL2   0.090000        1.0079           0
   20049 O1   59   DMPC H12S HAL2   0.090000        1.0079           0
   20050 O1   59   DMPC C213 CTL2  -0.180000       12.0107           0
   20051 O1   59   DMPC H13R HAL2   0.090000        1.0079           0
   20052 O1   59   DMPC H13S HAL2   0.090000        1.0079           0
   20053 O1   59   DMPC C214 CTL3  -0.270000       12.0107           0
   20054 O1   59   DMPC H14R HAL3   0.090000        1.0079           0
   20055 O1   59   DMPC H14S HAL3   0.090000        1.0079           0
   20056 O1   59   DMPC H14T HAL3   0.090000        1.0079           0
   20057 O1   59   DMPC C33  CTL2  -0.180000       12.0107           0
   20058 O1   59   DMPC H3X  HAL2   0.090000        1.0079           0
   20059 O1   59   DMPC H3Y  HAL2   0.090000        1.0079           0
   20060 O1   59   DMPC C34  CTL2  -0.180000       12.0107           0
   20061 O1   59   DMPC H4X  HAL2   0.090000        1.0079           0
   20062 O1   59   DMPC H4Y  HAL2   0.090000        1.0079           0
   20063 O1   59   DMPC C35  CTL2  -0.180000       12.0107           0
   20064 O1   59   DMPC H5X  HAL2   0.090000        1.0079           0
   20065 O1   59   DMPC H5Y  HAL2   0.090000        1.0079           0
   20066 O1   59   DMPC C36  CTL2  -0.180000       12.0107           0
   20067 O1   59   DMPC H6X  HAL2   0.090000        1.0079           0
   20068 O1   59   DMPC H6Y  HAL2   0.090000        1.0079           0
   20069 O1   59   DMPC C37  CTL2  -0.180000       12.0107           0
   20070 O1   59   DMPC H7X  HAL2   0.090000        1.0079           0
   20071 O1   59   DMPC H7Y  HAL2   0.090000        1.0079           0
   20072 O1   59   DMPC C38  CTL2  -0.180000       12.0107           0
   20073 O1   59   DMPC H8X  HAL2   0.090000        1.0079           0
   20074 O1   59   DMPC H8Y  HAL2   0.090000        1.0079           0
   20075 O1   59   DMPC C39  CTL2  -0.180000       12.0107           0
   20076 O1   59   DMPC H9X  HAL2   0.090000        1.0079           0
   20077 O1   59   DMPC H9Y  HAL2   0.090000        1.0079           0
   20078 O1   59   DMPC C310 CTL2  -0.180000       12.0107           0
   20079 O1   59   DMPC H10X HAL2   0.090000        1.0079           0
   20080 O1   59   DMPC H10Y HAL2   0.090000        1.0079           0
   20081 O1   59   DMPC C311 CTL2  -0.180000       12.0107           0
   20082 O1   59   DMPC H11X HAL2   0.090000        1.0079           0
   20083 O1   59   DMPC H11Y HAL2   0.090000        1.0079           0
   20084 O1   59   DMPC C312 CTL2  -0.180000       12.0107           0
   20085 O1   59   DMPC H12X HAL2   0.090000        1.0079           0
   20086 O1   59   DMPC H12Y HAL2   0.090000        1.0079           0
   20087 O1   59   DMPC C313 CTL2  -0.180000       12.0107           0
   20088 O1   59   DMPC H13X HAL2   0.090000        1.0079           0
   20089 O1   59   DMPC H13Y HAL2   0.090000        1.0079           0
   20090 O1   59   DMPC C314 CTL3  -0.270000       12.0107           0
   20091 O1   59   DMPC H14X HAL3   0.090000        1.0079           0
   20092 O1   59   DMPC H14Y HAL3   0.090000        1.0079           0
   20093 O1   59   DMPC H14Z HAL3   0.090000        1.0079           0
   20094 O1   60   DMPC N    NTL   -0.600000       14.0067           0
   20095 O1   60   DMPC C13  CTL5  -0.350000       12.0107           0
   20096 O1   60   DMPC H13A HL     0.250000        1.0079           0
   20097 O1   60   DMPC H13B HL     0.250000        1.0079           0
   20098 O1   60   DMPC H13C HL     0.250000        1.0079           0
   20099 O1   60   DMPC C14  CTL5  -0.350000       12.0107           0
   20100 O1   60   DMPC H14A HL     0.250000        1.0079           0
   20101 O1   60   DMPC H14B HL     0.250000        1.0079           0
   20102 O1   60   DMPC H14C HL     0.250000        1.0079           0
   20103 O1   60   DMPC C15  CTL5  -0.350000       12.0107           0
   20104 O1   60   DMPC H15A HL     0.250000        1.0079           0
   20105 O1   60   DMPC H15B HL     0.250000        1.0079           0
   20106 O1   60   DMPC H15C HL     0.250000        1.0079           0
   20107 O1   60   DMPC C12  CTL2  -0.100000       12.0107           0
   20108 O1   60   DMPC H12A HL     0.250000        1.0079           0
   20109 O1   60   DMPC H12B HL     0.250000        1.0079           0
   20110 O1   60   DMPC C11  CTL2  -0.080000       12.0107           0
   20111 O1   60   DMPC H11A HAL2   0.090000        1.0079           0
   20112 O1   60   DMPC H11B HAL2   0.090000        1.0079           0
   20113 O1   60   DMPC P    PL     1.500000       30.9738           0
   20114 O1   60   DMPC O13  O2L   -0.780000       15.9994           0
   20115 O1   60   DMPC O14  O2L   -0.780000       15.9994           0
   20116 O1   60   DMPC O11  OSLP  -0.570000       15.9994           0
   20117 O1   60   DMPC O12  OSLP  -0.570000       15.9994           0
   20118 O1   60   DMPC C1   CTL2  -0.080000       12.0107           0
   20119 O1   60   DMPC HA   HAL2   0.090000        1.0079           0
   20120 O1   60   DMPC HB   HAL2   0.090000        1.0079           0
   20121 O1   60   DMPC C2   CTL1   0.170000       12.0107           0
   20122 O1   60   DMPC HS   HAL1   0.090000        1.0079           0
   20123 O1   60   DMPC O21  OSL   -0.490000       15.9994           0
   20124 O1   60   DMPC C21  CL     0.900000       12.0107           0
   20125 O1   60   DMPC O22  OBL   -0.630000       15.9994           0
   20126 O1   60   DMPC C22  CTL2  -0.220000       12.0107           0
   20127 O1   60   DMPC H2R  HAL2   0.090000        1.0079           0
   20128 O1   60   DMPC H2S  HAL2   0.090000        1.0079           0
   20129 O1   60   DMPC C3   CTL2   0.080000       12.0107           0
   20130 O1   60   DMPC HX   HAL2   0.090000        1.0079           0
   20131 O1   60   DMPC HY   HAL2   0.090000        1.0079           0
   20132 O1   60   DMPC O31  OSL   -0.490000       15.9994           0
   20133 O1   60   DMPC C31  CL     0.900000       12.0107           0
   20134 O1   60   DMPC O32  OBL   -0.630000       15.9994           0
   20135 O1   60   DMPC C32  CTL2  -0.220000       12.0107           0
   20136 O1   60   DMPC H2X  HAL2   0.090000        1.0079           0
   20137 O1   60   DMPC H2Y  HAL2   0.090000        1.0079           0
   20138 O1   60   DMPC C23  CTL2  -0.180000       12.0107           0
   20139 O1   60   DMPC H3R  HAL2   0.090000        1.0079           0
   20140 O1   60   DMPC H3S  HAL2   0.090000        1.0079           0
   20141 O1   60   DMPC C24  CTL2  -0.180000       12.0107           0
   20142 O1   60   DMPC H4R  HAL2   0.090000        1.0079           0
   20143 O1   60   DMPC H4S  HAL2   0.090000        1.0079           0
   20144 O1   60   DMPC C25  CTL2  -0.180000       12.0107           0
   20145 O1   60   DMPC H5R  HAL2   0.090000        1.0079           0
   20146 O1   60   DMPC H5S  HAL2   0.090000        1.0079           0
   20147 O1   60   DMPC C26  CTL2  -0.180000       12.0107           0
   20148 O1   60   DMPC H6R  HAL2   0.090000        1.0079           0
   20149 O1   60   DMPC H6S  HAL2   0.090000        1.0079           0
   20150 O1   60   DMPC C27  CTL2  -0.180000       12.0107           0
   20151 O1   60   DMPC H7R  HAL2   0.090000        1.0079           0
   20152 O1   60   DMPC H7S  HAL2   0.090000        1.0079           0
   20153 O1   60   DMPC C28  CTL2  -0.180000       12.0107           0
   20154 O1   60   DMPC H8R  HAL2   0.090000        1.0079           0
   20155 O1   60   DMPC H8S  HAL2   0.090000        1.0079           0
   20156 O1   60   DMPC C29  CTL2  -0.180000       12.0107           0
   20157 O1   60   DMPC H9R  HAL2   0.090000        1.0079           0
   20158 O1   60   DMPC H9S  HAL2   0.090000        1.0079           0
   20159 O1   60   DMPC C210 CTL2  -0.180000       12.0107           0
   20160 O1   60   DMPC H10R HAL2   0.090000        1.0079           0
   20161 O1   60   DMPC H10S HAL2   0.090000        1.0079           0
   20162 O1   60   DMPC C211 CTL2  -0.180000       12.0107           0
   20163 O1   60   DMPC H11R HAL2   0.090000        1.0079           0
   20164 O1   60   DMPC H11S HAL2   0.090000        1.0079           0
   20165 O1   60   DMPC C212 CTL2  -0.180000       12.0107           0
   20166 O1   60   DMPC H12R HAL2   0.090000        1.0079           0
   20167 O1   60   DMPC H12S HAL2   0.090000        1.0079           0
   20168 O1   60   DMPC C213 CTL2  -0.180000       12.0107           0
   20169 O1   60   DMPC H13R HAL2   0.090000        1.0079           0
   20170 O1   60   DMPC H13S HAL2   0.090000        1.0079           0
   20171 O1   60   DMPC C214 CTL3  -0.270000       12.0107           0
   20172 O1   60   DMPC H14R HAL3   0.090000        1.0079           0
   20173 O1   60   DMPC H14S HAL3   0.090000        1.0079           0
   20174 O1   60   DMPC H14T HAL3   0.090000        1.0079           0
   20175 O1   60   DMPC C33  CTL2  -0.180000       12.0107           0
   20176 O1   60   DMPC H3X  HAL2   0.090000        1.0079           0
   20177 O1   60   DMPC H3Y  HAL2   0.090000        1.0079           0
   20178 O1   60   DMPC C34  CTL2  -0.180000       12.0107           0
   20179 O1   60   DMPC H4X  HAL2   0.090000        1.0079           0
   20180 O1   60   DMPC H4Y  HAL2   0.090000        1.0079           0
   20181 O1   60   DMPC C35  CTL2  -0.180000       12.0107           0
   20182 O1   60   DMPC H5X  HAL2   0.090000        1.0079           0
   20183 O1   60   DMPC H5Y  HAL2   0.090000        1.0079           0
   20184 O1   60   DMPC C36  CTL2  -0.180000       12.0107           0
   20185 O1   60   DMPC H6X  HAL2   0.090000        1.0079           0
   20186 O1   60   DMPC H6Y  HAL2   0.090000        1.0079           0
   20187 O1   60   DMPC C37  CTL2  -0.180000       12.0107           0
   20188 O1   60   DMPC H7X  HAL2   0.090000        1.0079           0
   20189 O1   60   DMPC H7Y  HAL2   0.090000        1.0079           0
   20190 O1   60   DMPC C38  CTL2  -0.180000       12.0107           0
   20191 O1   60   DMPC H8X  HAL2   0.090000        1.0079           0
   20192 O1   60   DMPC H8Y  HAL2   0.090000        1.0079           0
   20193 O1   60   DMPC C39  CTL2  -0.180000       12.0107           0
   20194 O1   60   DMPC H9X  HAL2   0.090000        1.0079           0
   20195 O1   60   DMPC H9Y  HAL2   0.090000        1.0079           0
   20196 O1   60   DMPC C310 CTL2  -0.180000       12.0107           0
   20197 O1   60   DMPC H10X HAL2   0.090000        1.0079           0
   20198 O1   60   DMPC H10Y HAL2   0.090000        1.0079           0
   20199 O1   60   DMPC C311 CTL2  -0.180000       12.0107           0
   20200 O1   60   DMPC H11X HAL2   0.090000        1.0079           0
   20201 O1   60   DMPC H11Y HAL2   0.090000        1.0079           0
   20202 O1   60   DMPC C312 CTL2  -0.180000       12.0107           0
   20203 O1   60   DMPC H12X HAL2   0.090000        1.0079           0
   20204 O1   60   DMPC H12Y HAL2   0.090000        1.0079           0
   20205 O1   60   DMPC C313 CTL2  -0.180000       12.0107           0
   20206 O1   60   DMPC H13X HAL2   0.090000        1.0079           0
   20207 O1   60   DMPC H13Y HAL2   0.090000        1.0079           0
   20208 O1   60   DMPC C314 CTL3  -0.270000       12.0107           0
   20209 O1   60   DMPC H14X HAL3   0.090000        1.0079           0
   20210 O1   60   DMPC H14Y HAL3   0.090000        1.0079           0
   20211 O1   60   DMPC H14Z HAL3   0.090000        1.0079           0
   20212 O1   61   DMPC N    NTL   -0.600000       14.0067           0
   20213 O1   61   DMPC C13  CTL5  -0.350000       12.0107           0
   20214 O1   61   DMPC H13A HL     0.250000        1.0079           0
   20215 O1   61   DMPC H13B HL     0.250000        1.0079           0
   20216 O1   61   DMPC H13C HL     0.250000        1.0079           0
   20217 O1   61   DMPC C14  CTL5  -0.350000       12.0107           0
   20218 O1   61   DMPC H14A HL     0.250000        1.0079           0
   20219 O1   61   DMPC H14B HL     0.250000        1.0079           0
   20220 O1   61   DMPC H14C HL     0.250000        1.0079           0
   20221 O1   61   DMPC C15  CTL5  -0.350000       12.0107           0
   20222 O1   61   DMPC H15A HL     0.250000        1.0079           0
   20223 O1   61   DMPC H15B HL     0.250000        1.0079           0
   20224 O1   61   DMPC H15C HL     0.250000        1.0079           0
   20225 O1   61   DMPC C12  CTL2  -0.100000       12.0107           0
   20226 O1   61   DMPC H12A HL     0.250000        1.0079           0
   20227 O1   61   DMPC H12B HL     0.250000        1.0079           0
   20228 O1   61   DMPC C11  CTL2  -0.080000       12.0107           0
   20229 O1   61   DMPC H11A HAL2   0.090000        1.0079           0
   20230 O1   61   DMPC H11B HAL2   0.090000        1.0079           0
   20231 O1   61   DMPC P    PL     1.500000       30.9738           0
   20232 O1   61   DMPC O13  O2L   -0.780000       15.9994           0
   20233 O1   61   DMPC O14  O2L   -0.780000       15.9994           0
   20234 O1   61   DMPC O11  OSLP  -0.570000       15.9994           0
   20235 O1   61   DMPC O12  OSLP  -0.570000       15.9994           0
   20236 O1   61   DMPC C1   CTL2  -0.080000       12.0107           0
   20237 O1   61   DMPC HA   HAL2   0.090000        1.0079           0
   20238 O1   61   DMPC HB   HAL2   0.090000        1.0079           0
   20239 O1   61   DMPC C2   CTL1   0.170000       12.0107           0
   20240 O1   61   DMPC HS   HAL1   0.090000        1.0079           0
   20241 O1   61   DMPC O21  OSL   -0.490000       15.9994           0
   20242 O1   61   DMPC C21  CL     0.900000       12.0107           0
   20243 O1   61   DMPC O22  OBL   -0.630000       15.9994           0
   20244 O1   61   DMPC C22  CTL2  -0.220000       12.0107           0
   20245 O1   61   DMPC H2R  HAL2   0.090000        1.0079           0
   20246 O1   61   DMPC H2S  HAL2   0.090000        1.0079           0
   20247 O1   61   DMPC C3   CTL2   0.080000       12.0107           0
   20248 O1   61   DMPC HX   HAL2   0.090000        1.0079           0
   20249 O1   61   DMPC HY   HAL2   0.090000        1.0079           0
   20250 O1   61   DMPC O31  OSL   -0.490000       15.9994           0
   20251 O1   61   DMPC C31  CL     0.900000       12.0107           0
   20252 O1   61   DMPC O32  OBL   -0.630000       15.9994           0
   20253 O1   61   DMPC C32  CTL2  -0.220000       12.0107           0
   20254 O1   61   DMPC H2X  HAL2   0.090000        1.0079           0
   20255 O1   61   DMPC H2Y  HAL2   0.090000        1.0079           0
   20256 O1   61   DMPC C23  CTL2  -0.180000       12.0107           0
   20257 O1   61   DMPC H3R  HAL2   0.090000        1.0079           0
   20258 O1   61   DMPC H3S  HAL2   0.090000        1.0079           0
   20259 O1   61   DMPC C24  CTL2  -0.180000       12.0107           0
   20260 O1   61   DMPC H4R  HAL2   0.090000        1.0079           0
   20261 O1   61   DMPC H4S  HAL2   0.090000        1.0079           0
   20262 O1   61   DMPC C25  CTL2  -0.180000       12.0107           0
   20263 O1   61   DMPC H5R  HAL2   0.090000        1.0079           0
   20264 O1   61   DMPC H5S  HAL2   0.090000        1.0079           0
   20265 O1   61   DMPC C26  CTL2  -0.180000       12.0107           0
   20266 O1   61   DMPC H6R  HAL2   0.090000        1.0079           0
   20267 O1   61   DMPC H6S  HAL2   0.090000        1.0079           0
   20268 O1   61   DMPC C27  CTL2  -0.180000       12.0107           0
   20269 O1   61   DMPC H7R  HAL2   0.090000        1.0079           0
   20270 O1   61   DMPC H7S  HAL2   0.090000        1.0079           0
   20271 O1   61   DMPC C28  CTL2  -0.180000       12.0107           0
   20272 O1   61   DMPC H8R  HAL2   0.090000        1.0079           0
   20273 O1   61   DMPC H8S  HAL2   0.090000        1.0079           0
   20274 O1   61   DMPC C29  CTL2  -0.180000       12.0107           0
   20275 O1   61   DMPC H9R  HAL2   0.090000        1.0079           0
   20276 O1   61   DMPC H9S  HAL2   0.090000        1.0079           0
   20277 O1   61   DMPC C210 CTL2  -0.180000       12.0107           0
   20278 O1   61   DMPC H10R HAL2   0.090000        1.0079           0
   20279 O1   61   DMPC H10S HAL2   0.090000        1.0079           0
   20280 O1   61   DMPC C211 CTL2  -0.180000       12.0107           0
   20281 O1   61   DMPC H11R HAL2   0.090000        1.0079           0
   20282 O1   61   DMPC H11S HAL2   0.090000        1.0079           0
   20283 O1   61   DMPC C212 CTL2  -0.180000       12.0107           0
   20284 O1   61   DMPC H12R HAL2   0.090000        1.0079           0
   20285 O1   61   DMPC H12S HAL2   0.090000        1.0079           0
   20286 O1   61   DMPC C213 CTL2  -0.180000       12.0107           0
   20287 O1   61   DMPC H13R HAL2   0.090000        1.0079           0
   20288 O1   61   DMPC H13S HAL2   0.090000        1.0079           0
   20289 O1   61   DMPC C214 CTL3  -0.270000       12.0107           0
   20290 O1   61   DMPC H14R HAL3   0.090000        1.0079           0
   20291 O1   61   DMPC H14S HAL3   0.090000        1.0079           0
   20292 O1   61   DMPC H14T HAL3   0.090000        1.0079           0
   20293 O1   61   DMPC C33  CTL2  -0.180000       12.0107           0
   20294 O1   61   DMPC H3X  HAL2   0.090000        1.0079           0
   20295 O1   61   DMPC H3Y  HAL2   0.090000        1.0079           0
   20296 O1   61   DMPC C34  CTL2  -0.180000       12.0107           0
   20297 O1   61   DMPC H4X  HAL2   0.090000        1.0079           0
   20298 O1   61   DMPC H4Y  HAL2   0.090000        1.0079           0
   20299 O1   61   DMPC C35  CTL2  -0.180000       12.0107           0
   20300 O1   61   DMPC H5X  HAL2   0.090000        1.0079           0
   20301 O1   61   DMPC H5Y  HAL2   0.090000        1.0079           0
   20302 O1   61   DMPC C36  CTL2  -0.180000       12.0107           0
   20303 O1   61   DMPC H6X  HAL2   0.090000        1.0079           0
   20304 O1   61   DMPC H6Y  HAL2   0.090000        1.0079           0
   20305 O1   61   DMPC C37  CTL2  -0.180000       12.0107           0
   20306 O1   61   DMPC H7X  HAL2   0.090000        1.0079           0
   20307 O1   61   DMPC H7Y  HAL2   0.090000        1.0079           0
   20308 O1   61   DMPC C38  CTL2  -0.180000       12.0107           0
   20309 O1   61   DMPC H8X  HAL2   0.090000        1.0079           0
   20310 O1   61   DMPC H8Y  HAL2   0.090000        1.0079           0
   20311 O1   61   DMPC C39  CTL2  -0.180000       12.0107           0
   20312 O1   61   DMPC H9X  HAL2   0.090000        1.0079           0
   20313 O1   61   DMPC H9Y  HAL2   0.090000        1.0079           0
   20314 O1   61   DMPC C310 CTL2  -0.180000       12.0107           0
   20315 O1   61   DMPC H10X HAL2   0.090000        1.0079           0
   20316 O1   61   DMPC H10Y HAL2   0.090000        1.0079           0
   20317 O1   61   DMPC C311 CTL2  -0.180000       12.0107           0
   20318 O1   61   DMPC H11X HAL2   0.090000        1.0079           0
   20319 O1   61   DMPC H11Y HAL2   0.090000        1.0079           0
   20320 O1   61   DMPC C312 CTL2  -0.180000       12.0107           0
   20321 O1   61   DMPC H12X HAL2   0.090000        1.0079           0
   20322 O1   61   DMPC H12Y HAL2   0.090000        1.0079           0
   20323 O1   61   DMPC C313 CTL2  -0.180000       12.0107           0
   20324 O1   61   DMPC H13X HAL2   0.090000        1.0079           0
   20325 O1   61   DMPC H13Y HAL2   0.090000        1.0079           0
   20326 O1   61   DMPC C314 CTL3  -0.270000       12.0107           0
   20327 O1   61   DMPC H14X HAL3   0.090000        1.0079           0
   20328 O1   61   DMPC H14Y HAL3   0.090000        1.0079           0
   20329 O1   61   DMPC H14Z HAL3   0.090000        1.0079           0
   20330 O1   62   DMPC N    NTL   -0.600000       14.0067           0
   20331 O1   62   DMPC C13  CTL5  -0.350000       12.0107           0
   20332 O1   62   DMPC H13A HL     0.250000        1.0079           0
   20333 O1   62   DMPC H13B HL     0.250000        1.0079           0
   20334 O1   62   DMPC H13C HL     0.250000        1.0079           0
   20335 O1   62   DMPC C14  CTL5  -0.350000       12.0107           0
   20336 O1   62   DMPC H14A HL     0.250000        1.0079           0
   20337 O1   62   DMPC H14B HL     0.250000        1.0079           0
   20338 O1   62   DMPC H14C HL     0.250000        1.0079           0
   20339 O1   62   DMPC C15  CTL5  -0.350000       12.0107           0
   20340 O1   62   DMPC H15A HL     0.250000        1.0079           0
   20341 O1   62   DMPC H15B HL     0.250000        1.0079           0
   20342 O1   62   DMPC H15C HL     0.250000        1.0079           0
   20343 O1   62   DMPC C12  CTL2  -0.100000       12.0107           0
   20344 O1   62   DMPC H12A HL     0.250000        1.0079           0
   20345 O1   62   DMPC H12B HL     0.250000        1.0079           0
   20346 O1   62   DMPC C11  CTL2  -0.080000       12.0107           0
   20347 O1   62   DMPC H11A HAL2   0.090000        1.0079           0
   20348 O1   62   DMPC H11B HAL2   0.090000        1.0079           0
   20349 O1   62   DMPC P    PL     1.500000       30.9738           0
   20350 O1   62   DMPC O13  O2L   -0.780000       15.9994           0
   20351 O1   62   DMPC O14  O2L   -0.780000       15.9994           0
   20352 O1   62   DMPC O11  OSLP  -0.570000       15.9994           0
   20353 O1   62   DMPC O12  OSLP  -0.570000       15.9994           0
   20354 O1   62   DMPC C1   CTL2  -0.080000       12.0107           0
   20355 O1   62   DMPC HA   HAL2   0.090000        1.0079           0
   20356 O1   62   DMPC HB   HAL2   0.090000        1.0079           0
   20357 O1   62   DMPC C2   CTL1   0.170000       12.0107           0
   20358 O1   62   DMPC HS   HAL1   0.090000        1.0079           0
   20359 O1   62   DMPC O21  OSL   -0.490000       15.9994           0
   20360 O1   62   DMPC C21  CL     0.900000       12.0107           0
   20361 O1   62   DMPC O22  OBL   -0.630000       15.9994           0
   20362 O1   62   DMPC C22  CTL2  -0.220000       12.0107           0
   20363 O1   62   DMPC H2R  HAL2   0.090000        1.0079           0
   20364 O1   62   DMPC H2S  HAL2   0.090000        1.0079           0
   20365 O1   62   DMPC C3   CTL2   0.080000       12.0107           0
   20366 O1   62   DMPC HX   HAL2   0.090000        1.0079           0
   20367 O1   62   DMPC HY   HAL2   0.090000        1.0079           0
   20368 O1   62   DMPC O31  OSL   -0.490000       15.9994           0
   20369 O1   62   DMPC C31  CL     0.900000       12.0107           0
   20370 O1   62   DMPC O32  OBL   -0.630000       15.9994           0
   20371 O1   62   DMPC C32  CTL2  -0.220000       12.0107           0
   20372 O1   62   DMPC H2X  HAL2   0.090000        1.0079           0
   20373 O1   62   DMPC H2Y  HAL2   0.090000        1.0079           0
   20374 O1   62   DMPC C23  CTL2  -0.180000       12.0107           0
   20375 O1   62   DMPC H3R  HAL2   0.090000        1.0079           0
   20376 O1   62   DMPC H3S  HAL2   0.090000        1.0079           0
   20377 O1   62   DMPC C24  CTL2  -0.180000       12.0107           0
   20378 O1   62   DMPC H4R  HAL2   0.090000        1.0079           0
   20379 O1   62   DMPC H4S  HAL2   0.090000        1.0079           0
   20380 O1   62   DMPC C25  CTL2  -0.180000       12.0107           0
   20381 O1   62   DMPC H5R  HAL2   0.090000        1.0079           0
   20382 O1   62   DMPC H5S  HAL2   0.090000        1.0079           0
   20383 O1   62   DMPC C26  CTL2  -0.180000       12.0107           0
   20384 O1   62   DMPC H6R  HAL2   0.090000        1.0079           0
   20385 O1   62   DMPC H6S  HAL2   0.090000        1.0079           0
   20386 O1   62   DMPC C27  CTL2  -0.180000       12.0107           0
   20387 O1   62   DMPC H7R  HAL2   0.090000        1.0079           0
   20388 O1   62   DMPC H7S  HAL2   0.090000        1.0079           0
   20389 O1   62   DMPC C28  CTL2  -0.180000       12.0107           0
   20390 O1   62   DMPC H8R  HAL2   0.090000        1.0079           0
   20391 O1   62   DMPC H8S  HAL2   0.090000        1.0079           0
   20392 O1   62   DMPC C29  CTL2  -0.180000       12.0107           0
   20393 O1   62   DMPC H9R  HAL2   0.090000        1.0079           0
   20394 O1   62   DMPC H9S  HAL2   0.090000        1.0079           0
   20395 O1   62   DMPC C210 CTL2  -0.180000       12.0107           0
   20396 O1   62   DMPC H10R HAL2   0.090000        1.0079           0
   20397 O1   62   DMPC H10S HAL2   0.090000        1.0079           0
   20398 O1   62   DMPC C211 CTL2  -0.180000       12.0107           0
   20399 O1   62   DMPC H11R HAL2   0.090000        1.0079           0
   20400 O1   62   DMPC H11S HAL2   0.090000        1.0079           0
   20401 O1   62   DMPC C212 CTL2  -0.180000       12.0107           0
   20402 O1   62   DMPC H12R HAL2   0.090000        1.0079           0
   20403 O1   62   DMPC H12S HAL2   0.090000        1.0079           0
   20404 O1   62   DMPC C213 CTL2  -0.180000       12.0107           0
   20405 O1   62   DMPC H13R HAL2   0.090000        1.0079           0
   20406 O1   62   DMPC H13S HAL2   0.090000        1.0079           0
   20407 O1   62   DMPC C214 CTL3  -0.270000       12.0107           0
   20408 O1   62   DMPC H14R HAL3   0.090000        1.0079           0
   20409 O1   62   DMPC H14S HAL3   0.090000        1.0079           0
   20410 O1   62   DMPC H14T HAL3   0.090000        1.0079           0
   20411 O1   62   DMPC C33  CTL2  -0.180000       12.0107           0
   20412 O1   62   DMPC H3X  HAL2   0.090000        1.0079           0
   20413 O1   62   DMPC H3Y  HAL2   0.090000        1.0079           0
   20414 O1   62   DMPC C34  CTL2  -0.180000       12.0107           0
   20415 O1   62   DMPC H4X  HAL2   0.090000        1.0079           0
   20416 O1   62   DMPC H4Y  HAL2   0.090000        1.0079           0
   20417 O1   62   DMPC C35  CTL2  -0.180000       12.0107           0
   20418 O1   62   DMPC H5X  HAL2   0.090000        1.0079           0
   20419 O1   62   DMPC H5Y  HAL2   0.090000        1.0079           0
   20420 O1   62   DMPC C36  CTL2  -0.180000       12.0107           0
   20421 O1   62   DMPC H6X  HAL2   0.090000        1.0079           0
   20422 O1   62   DMPC H6Y  HAL2   0.090000        1.0079           0
   20423 O1   62   DMPC C37  CTL2  -0.180000       12.0107           0
   20424 O1   62   DMPC H7X  HAL2   0.090000        1.0079           0
   20425 O1   62   DMPC H7Y  HAL2   0.090000        1.0079           0
   20426 O1   62   DMPC C38  CTL2  -0.180000       12.0107           0
   20427 O1   62   DMPC H8X  HAL2   0.090000        1.0079           0
   20428 O1   62   DMPC H8Y  HAL2   0.090000        1.0079           0
   20429 O1   62   DMPC C39  CTL2  -0.180000       12.0107           0
   20430 O1   62   DMPC H9X  HAL2   0.090000        1.0079           0
   20431 O1   62   DMPC H9Y  HAL2   0.090000        1.0079           0
   20432 O1   62   DMPC C310 CTL2  -0.180000       12.0107           0
   20433 O1   62   DMPC H10X HAL2   0.090000        1.0079           0
   20434 O1   62   DMPC H10Y HAL2   0.090000        1.0079           0
   20435 O1   62   DMPC C311 CTL2  -0.180000       12.0107           0
   20436 O1   62   DMPC H11X HAL2   0.090000        1.0079           0
   20437 O1   62   DMPC H11Y HAL2   0.090000        1.0079           0
   20438 O1   62   DMPC C312 CTL2  -0.180000       12.0107           0
   20439 O1   62   DMPC H12X HAL2   0.090000        1.0079           0
   20440 O1   62   DMPC H12Y HAL2   0.090000        1.0079           0
   20441 O1   62   DMPC C313 CTL2  -0.180000       12.0107           0
   20442 O1   62   DMPC H13X HAL2   0.090000        1.0079           0
   20443 O1   62   DMPC H13Y HAL2   0.090000        1.0079           0
   20444 O1   62   DMPC C314 CTL3  -0.270000       12.0107           0
   20445 O1   62   DMPC H14X HAL3   0.090000        1.0079           0
   20446 O1   62   DMPC H14Y HAL3   0.090000        1.0079           0
   20447 O1   62   DMPC H14Z HAL3   0.090000        1.0079           0
   20448 O1   63   DMPC N    NTL   -0.600000       14.0067           0
   20449 O1   63   DMPC C13  CTL5  -0.350000       12.0107           0
   20450 O1   63   DMPC H13A HL     0.250000        1.0079           0
   20451 O1   63   DMPC H13B HL     0.250000        1.0079           0
   20452 O1   63   DMPC H13C HL     0.250000        1.0079           0
   20453 O1   63   DMPC C14  CTL5  -0.350000       12.0107           0
   20454 O1   63   DMPC H14A HL     0.250000        1.0079           0
   20455 O1   63   DMPC H14B HL     0.250000        1.0079           0
   20456 O1   63   DMPC H14C HL     0.250000        1.0079           0
   20457 O1   63   DMPC C15  CTL5  -0.350000       12.0107           0
   20458 O1   63   DMPC H15A HL     0.250000        1.0079           0
   20459 O1   63   DMPC H15B HL     0.250000        1.0079           0
   20460 O1   63   DMPC H15C HL     0.250000        1.0079           0
   20461 O1   63   DMPC C12  CTL2  -0.100000       12.0107           0
   20462 O1   63   DMPC H12A HL     0.250000        1.0079           0
   20463 O1   63   DMPC H12B HL     0.250000        1.0079           0
   20464 O1   63   DMPC C11  CTL2  -0.080000       12.0107           0
   20465 O1   63   DMPC H11A HAL2   0.090000        1.0079           0
   20466 O1   63   DMPC H11B HAL2   0.090000        1.0079           0
   20467 O1   63   DMPC P    PL     1.500000       30.9738           0
   20468 O1   63   DMPC O13  O2L   -0.780000       15.9994           0
   20469 O1   63   DMPC O14  O2L   -0.780000       15.9994           0
   20470 O1   63   DMPC O11  OSLP  -0.570000       15.9994           0
   20471 O1   63   DMPC O12  OSLP  -0.570000       15.9994           0
   20472 O1   63   DMPC C1   CTL2  -0.080000       12.0107           0
   20473 O1   63   DMPC HA   HAL2   0.090000        1.0079           0
   20474 O1   63   DMPC HB   HAL2   0.090000        1.0079           0
   20475 O1   63   DMPC C2   CTL1   0.170000       12.0107           0
   20476 O1   63   DMPC HS   HAL1   0.090000        1.0079           0
   20477 O1   63   DMPC O21  OSL   -0.490000       15.9994           0
   20478 O1   63   DMPC C21  CL     0.900000       12.0107           0
   20479 O1   63   DMPC O22  OBL   -0.630000       15.9994           0
   20480 O1   63   DMPC C22  CTL2  -0.220000       12.0107           0
   20481 O1   63   DMPC H2R  HAL2   0.090000        1.0079           0
   20482 O1   63   DMPC H2S  HAL2   0.090000        1.0079           0
   20483 O1   63   DMPC C3   CTL2   0.080000       12.0107           0
   20484 O1   63   DMPC HX   HAL2   0.090000        1.0079           0
   20485 O1   63   DMPC HY   HAL2   0.090000        1.0079           0
   20486 O1   63   DMPC O31  OSL   -0.490000       15.9994           0
   20487 O1   63   DMPC C31  CL     0.900000       12.0107           0
   20488 O1   63   DMPC O32  OBL   -0.630000       15.9994           0
   20489 O1   63   DMPC C32  CTL2  -0.220000       12.0107           0
   20490 O1   63   DMPC H2X  HAL2   0.090000        1.0079           0
   20491 O1   63   DMPC H2Y  HAL2   0.090000        1.0079           0
   20492 O1   63   DMPC C23  CTL2  -0.180000       12.0107           0
   20493 O1   63   DMPC H3R  HAL2   0.090000        1.0079           0
   20494 O1   63   DMPC H3S  HAL2   0.090000        1.0079           0
   20495 O1   63   DMPC C24  CTL2  -0.180000       12.0107           0
   20496 O1   63   DMPC H4R  HAL2   0.090000        1.0079           0
   20497 O1   63   DMPC H4S  HAL2   0.090000        1.0079           0
   20498 O1   63   DMPC C25  CTL2  -0.180000       12.0107           0
   20499 O1   63   DMPC H5R  HAL2   0.090000        1.0079           0
   20500 O1   63   DMPC H5S  HAL2   0.090000        1.0079           0
   20501 O1   63   DMPC C26  CTL2  -0.180000       12.0107           0
   20502 O1   63   DMPC H6R  HAL2   0.090000        1.0079           0
   20503 O1   63   DMPC H6S  HAL2   0.090000        1.0079           0
   20504 O1   63   DMPC C27  CTL2  -0.180000       12.0107           0
   20505 O1   63   DMPC H7R  HAL2   0.090000        1.0079           0
   20506 O1   63   DMPC H7S  HAL2   0.090000        1.0079           0
   20507 O1   63   DMPC C28  CTL2  -0.180000       12.0107           0
   20508 O1   63   DMPC H8R  HAL2   0.090000        1.0079           0
   20509 O1   63   DMPC H8S  HAL2   0.090000        1.0079           0
   20510 O1   63   DMPC C29  CTL2  -0.180000       12.0107           0
   20511 O1   63   DMPC H9R  HAL2   0.090000        1.0079           0
   20512 O1   63   DMPC H9S  HAL2   0.090000        1.0079           0
   20513 O1   63   DMPC C210 CTL2  -0.180000       12.0107           0
   20514 O1   63   DMPC H10R HAL2   0.090000        1.0079           0
   20515 O1   63   DMPC H10S HAL2   0.090000        1.0079           0
   20516 O1   63   DMPC C211 CTL2  -0.180000       12.0107           0
   20517 O1   63   DMPC H11R HAL2   0.090000        1.0079           0
   20518 O1   63   DMPC H11S HAL2   0.090000        1.0079           0
   20519 O1   63   DMPC C212 CTL2  -0.180000       12.0107           0
   20520 O1   63   DMPC H12R HAL2   0.090000        1.0079           0
   20521 O1   63   DMPC H12S HAL2   0.090000        1.0079           0
   20522 O1   63   DMPC C213 CTL2  -0.180000       12.0107           0
   20523 O1   63   DMPC H13R HAL2   0.090000        1.0079           0
   20524 O1   63   DMPC H13S HAL2   0.090000        1.0079           0
   20525 O1   63   DMPC C214 CTL3  -0.270000       12.0107           0
   20526 O1   63   DMPC H14R HAL3   0.090000        1.0079           0
   20527 O1   63   DMPC H14S HAL3   0.090000        1.0079           0
   20528 O1   63   DMPC H14T HAL3   0.090000        1.0079           0
   20529 O1   63   DMPC C33  CTL2  -0.180000       12.0107           0
   20530 O1   63   DMPC H3X  HAL2   0.090000        1.0079           0
   20531 O1   63   DMPC H3Y  HAL2   0.090000        1.0079           0
   20532 O1   63   DMPC C34  CTL2  -0.180000       12.0107           0
   20533 O1   63   DMPC H4X  HAL2   0.090000        1.0079           0
   20534 O1   63   DMPC H4Y  HAL2   0.090000        1.0079           0
   20535 O1   63   DMPC C35  CTL2  -0.180000       12.0107           0
   20536 O1   63   DMPC H5X  HAL2   0.090000        1.0079           0
   20537 O1   63   DMPC H5Y  HAL2   0.090000        1.0079           0
   20538 O1   63   DMPC C36  CTL2  -0.180000       12.0107           0
   20539 O1   63   DMPC H6X  HAL2   0.090000        1.0079           0
   20540 O1   63   DMPC H6Y  HAL2   0.090000        1.0079           0
   20541 O1   63   DMPC C37  CTL2  -0.180000       12.0107           0
   20542 O1   63   DMPC H7X  HAL2   0.090000        1.0079           0
   20543 O1   63   DMPC H7Y  HAL2   0.090000        1.0079           0
   20544 O1   63   DMPC C38  CTL2  -0.180000       12.0107           0
   20545 O1   63   DMPC H8X  HAL2   0.090000        1.0079           0
   20546 O1   63   DMPC H8Y  HAL2   0.090000        1.0079           0
   20547 O1   63   DMPC C39  CTL2  -0.180000       12.0107           0
   20548 O1   63   DMPC H9X  HAL2   0.090000        1.0079           0
   20549 O1   63   DMPC H9Y  HAL2   0.090000        1.0079           0
   20550 O1   63   DMPC C310 CTL2  -0.180000       12.0107           0
   20551 O1   63   DMPC H10X HAL2   0.090000        1.0079           0
   20552 O1   63   DMPC H10Y HAL2   0.090000        1.0079           0
   20553 O1   63   DMPC C311 CTL2  -0.180000       12.0107           0
   20554 O1   63   DMPC H11X HAL2   0.090000        1.0079           0
   20555 O1   63   DMPC H11Y HAL2   0.090000        1.0079           0
   20556 O1   63   DMPC C312 CTL2  -0.180000       12.0107           0
   20557 O1   63   DMPC H12X HAL2   0.090000        1.0079           0
   20558 O1   63   DMPC H12Y HAL2   0.090000        1.0079           0
   20559 O1   63   DMPC C313 CTL2  -0.180000       12.0107           0
   20560 O1   63   DMPC H13X HAL2   0.090000        1.0079           0
   20561 O1   63   DMPC H13Y HAL2   0.090000        1.0079           0
   20562 O1   63   DMPC C314 CTL3  -0.270000       12.0107           0
   20563 O1   63   DMPC H14X HAL3   0.090000        1.0079           0
   20564 O1   63   DMPC H14Y HAL3   0.090000        1.0079           0
   20565 O1   63   DMPC H14Z HAL3   0.090000        1.0079           0
   20566 O1   64   DMPC N    NTL   -0.600000       14.0067           0
   20567 O1   64   DMPC C13  CTL5  -0.350000       12.0107           0
   20568 O1   64   DMPC H13A HL     0.250000        1.0079           0
   20569 O1   64   DMPC H13B HL     0.250000        1.0079           0
   20570 O1   64   DMPC H13C HL     0.250000        1.0079           0
   20571 O1   64   DMPC C14  CTL5  -0.350000       12.0107           0
   20572 O1   64   DMPC H14A HL     0.250000        1.0079           0
   20573 O1   64   DMPC H14B HL     0.250000        1.0079           0
   20574 O1   64   DMPC H14C HL     0.250000        1.0079           0
   20575 O1   64   DMPC C15  CTL5  -0.350000       12.0107           0
   20576 O1   64   DMPC H15A HL     0.250000        1.0079           0
   20577 O1   64   DMPC H15B HL     0.250000        1.0079           0
   20578 O1   64   DMPC H15C HL     0.250000        1.0079           0
   20579 O1   64   DMPC C12  CTL2  -0.100000       12.0107           0
   20580 O1   64   DMPC H12A HL     0.250000        1.0079           0
   20581 O1   64   DMPC H12B HL     0.250000        1.0079           0
   20582 O1   64   DMPC C11  CTL2  -0.080000       12.0107           0
   20583 O1   64   DMPC H11A HAL2   0.090000        1.0079           0
   20584 O1   64   DMPC H11B HAL2   0.090000        1.0079           0
   20585 O1   64   DMPC P    PL     1.500000       30.9738           0
   20586 O1   64   DMPC O13  O2L   -0.780000       15.9994           0
   20587 O1   64   DMPC O14  O2L   -0.780000       15.9994           0
   20588 O1   64   DMPC O11  OSLP  -0.570000       15.9994           0
   20589 O1   64   DMPC O12  OSLP  -0.570000       15.9994           0
   20590 O1   64   DMPC C1   CTL2  -0.080000       12.0107           0
   20591 O1   64   DMPC HA   HAL2   0.090000        1.0079           0
   20592 O1   64   DMPC HB   HAL2   0.090000        1.0079           0
   20593 O1   64   DMPC C2   CTL1   0.170000       12.0107           0
   20594 O1   64   DMPC HS   HAL1   0.090000        1.0079           0
   20595 O1   64   DMPC O21  OSL   -0.490000       15.9994           0
   20596 O1   64   DMPC C21  CL     0.900000       12.0107           0
   20597 O1   64   DMPC O22  OBL   -0.630000       15.9994           0
   20598 O1   64   DMPC C22  CTL2  -0.220000       12.0107           0
   20599 O1   64   DMPC H2R  HAL2   0.090000        1.0079           0
   20600 O1   64   DMPC H2S  HAL2   0.090000        1.0079           0
   20601 O1   64   DMPC C3   CTL2   0.080000       12.0107           0
   20602 O1   64   DMPC HX   HAL2   0.090000        1.0079           0
   20603 O1   64   DMPC HY   HAL2   0.090000        1.0079           0
   20604 O1   64   DMPC O31  OSL   -0.490000       15.9994           0
   20605 O1   64   DMPC C31  CL     0.900000       12.0107           0
   20606 O1   64   DMPC O32  OBL   -0.630000       15.9994           0
   20607 O1   64   DMPC C32  CTL2  -0.220000       12.0107           0
   20608 O1   64   DMPC H2X  HAL2   0.090000        1.0079           0
   20609 O1   64   DMPC H2Y  HAL2   0.090000        1.0079           0
   20610 O1   64   DMPC C23  CTL2  -0.180000       12.0107           0
   20611 O1   64   DMPC H3R  HAL2   0.090000        1.0079           0
   20612 O1   64   DMPC H3S  HAL2   0.090000        1.0079           0
   20613 O1   64   DMPC C24  CTL2  -0.180000       12.0107           0
   20614 O1   64   DMPC H4R  HAL2   0.090000        1.0079           0
   20615 O1   64   DMPC H4S  HAL2   0.090000        1.0079           0
   20616 O1   64   DMPC C25  CTL2  -0.180000       12.0107           0
   20617 O1   64   DMPC H5R  HAL2   0.090000        1.0079           0
   20618 O1   64   DMPC H5S  HAL2   0.090000        1.0079           0
   20619 O1   64   DMPC C26  CTL2  -0.180000       12.0107           0
   20620 O1   64   DMPC H6R  HAL2   0.090000        1.0079           0
   20621 O1   64   DMPC H6S  HAL2   0.090000        1.0079           0
   20622 O1   64   DMPC C27  CTL2  -0.180000       12.0107           0
   20623 O1   64   DMPC H7R  HAL2   0.090000        1.0079           0
   20624 O1   64   DMPC H7S  HAL2   0.090000        1.0079           0
   20625 O1   64   DMPC C28  CTL2  -0.180000       12.0107           0
   20626 O1   64   DMPC H8R  HAL2   0.090000        1.0079           0
   20627 O1   64   DMPC H8S  HAL2   0.090000        1.0079           0
   20628 O1   64   DMPC C29  CTL2  -0.180000       12.0107           0
   20629 O1   64   DMPC H9R  HAL2   0.090000        1.0079           0
   20630 O1   64   DMPC H9S  HAL2   0.090000        1.0079           0
   20631 O1   64   DMPC C210 CTL2  -0.180000       12.0107           0
   20632 O1   64   DMPC H10R HAL2   0.090000        1.0079           0
   20633 O1   64   DMPC H10S HAL2   0.090000        1.0079           0
   20634 O1   64   DMPC C211 CTL2  -0.180000       12.0107           0
   20635 O1   64   DMPC H11R HAL2   0.090000        1.0079           0
   20636 O1   64   DMPC H11S HAL2   0.090000        1.0079           0
   20637 O1   64   DMPC C212 CTL2  -0.180000       12.0107           0
   20638 O1   64   DMPC H12R HAL2   0.090000        1.0079           0
   20639 O1   64   DMPC H12S HAL2   0.090000        1.0079           0
   20640 O1   64   DMPC C213 CTL2  -0.180000       12.0107           0
   20641 O1   64   DMPC H13R HAL2   0.090000        1.0079           0
   20642 O1   64   DMPC H13S HAL2   0.090000        1.0079           0
   20643 O1   64   DMPC C214 CTL3  -0.270000       12.0107           0
   20644 O1   64   DMPC H14R HAL3   0.090000        1.0079           0
   20645 O1   64   DMPC H14S HAL3   0.090000        1.0079           0
   20646 O1   64   DMPC H14T HAL3   0.090000        1.0079           0
   20647 O1   64   DMPC C33  CTL2  -0.180000       12.0107           0
   20648 O1   64   DMPC H3X  HAL2   0.090000        1.0079           0
   20649 O1   64   DMPC H3Y  HAL2   0.090000        1.0079           0
   20650 O1   64   DMPC C34  CTL2  -0.180000       12.0107           0
   20651 O1   64   DMPC H4X  HAL2   0.090000        1.0079           0
   20652 O1   64   DMPC H4Y  HAL2   0.090000        1.0079           0
   20653 O1   64   DMPC C35  CTL2  -0.180000       12.0107           0
   20654 O1   64   DMPC H5X  HAL2   0.090000        1.0079           0
   20655 O1   64   DMPC H5Y  HAL2   0.090000        1.0079           0
   20656 O1   64   DMPC C36  CTL2  -0.180000       12.0107           0
   20657 O1   64   DMPC H6X  HAL2   0.090000        1.0079           0
   20658 O1   64   DMPC H6Y  HAL2   0.090000        1.0079           0
   20659 O1   64   DMPC C37  CTL2  -0.180000       12.0107           0
   20660 O1   64   DMPC H7X  HAL2   0.090000        1.0079           0
   20661 O1   64   DMPC H7Y  HAL2   0.090000        1.0079           0
   20662 O1   64   DMPC C38  CTL2  -0.180000       12.0107           0
   20663 O1   64   DMPC H8X  HAL2   0.090000        1.0079           0
   20664 O1   64   DMPC H8Y  HAL2   0.090000        1.0079           0
   20665 O1   64   DMPC C39  CTL2  -0.180000       12.0107           0
   20666 O1   64   DMPC H9X  HAL2   0.090000        1.0079           0
   20667 O1   64   DMPC H9Y  HAL2   0.090000        1.0079           0
   20668 O1   64   DMPC C310 CTL2  -0.180000       12.0107           0
   20669 O1   64   DMPC H10X HAL2   0.090000        1.0079           0
   20670 O1   64   DMPC H10Y HAL2   0.090000        1.0079           0
   20671 O1   64   DMPC C311 CTL2  -0.180000       12.0107           0
   20672 O1   64   DMPC H11X HAL2   0.090000        1.0079           0
   20673 O1   64   DMPC H11Y HAL2   0.090000        1.0079           0
   20674 O1   64   DMPC C312 CTL2  -0.180000       12.0107           0
   20675 O1   64   DMPC H12X HAL2   0.090000        1.0079           0
   20676 O1   64   DMPC H12Y HAL2   0.090000        1.0079           0
   20677 O1   64   DMPC C313 CTL2  -0.180000       12.0107           0
   20678 O1   64   DMPC H13X HAL2   0.090000        1.0079           0
   20679 O1   64   DMPC H13Y HAL2   0.090000        1.0079           0
   20680 O1   64   DMPC C314 CTL3  -0.270000       12.0107           0
   20681 O1   64   DMPC H14X HAL3   0.090000        1.0079           0
   20682 O1   64   DMPC H14Y HAL3   0.090000        1.0079           0
   20683 O1   64   DMPC H14Z HAL3   0.090000        1.0079           0
   20684 O1   65   DMPC N    NTL   -0.600000       14.0067           0
   20685 O1   65   DMPC C13  CTL5  -0.350000       12.0107           0
   20686 O1   65   DMPC H13A HL     0.250000        1.0079           0
   20687 O1   65   DMPC H13B HL     0.250000        1.0079           0
   20688 O1   65   DMPC H13C HL     0.250000        1.0079           0
   20689 O1   65   DMPC C14  CTL5  -0.350000       12.0107           0
   20690 O1   65   DMPC H14A HL     0.250000        1.0079           0
   20691 O1   65   DMPC H14B HL     0.250000        1.0079           0
   20692 O1   65   DMPC H14C HL     0.250000        1.0079           0
   20693 O1   65   DMPC C15  CTL5  -0.350000       12.0107           0
   20694 O1   65   DMPC H15A HL     0.250000        1.0079           0
   20695 O1   65   DMPC H15B HL     0.250000        1.0079           0
   20696 O1   65   DMPC H15C HL     0.250000        1.0079           0
   20697 O1   65   DMPC C12  CTL2  -0.100000       12.0107           0
   20698 O1   65   DMPC H12A HL     0.250000        1.0079           0
   20699 O1   65   DMPC H12B HL     0.250000        1.0079           0
   20700 O1   65   DMPC C11  CTL2  -0.080000       12.0107           0
   20701 O1   65   DMPC H11A HAL2   0.090000        1.0079           0
   20702 O1   65   DMPC H11B HAL2   0.090000        1.0079           0
   20703 O1   65   DMPC P    PL     1.500000       30.9738           0
   20704 O1   65   DMPC O13  O2L   -0.780000       15.9994           0
   20705 O1   65   DMPC O14  O2L   -0.780000       15.9994           0
   20706 O1   65   DMPC O11  OSLP  -0.570000       15.9994           0
   20707 O1   65   DMPC O12  OSLP  -0.570000       15.9994           0
   20708 O1   65   DMPC C1   CTL2  -0.080000       12.0107           0
   20709 O1   65   DMPC HA   HAL2   0.090000        1.0079           0
   20710 O1   65   DMPC HB   HAL2   0.090000        1.0079           0
   20711 O1   65   DMPC C2   CTL1   0.170000       12.0107           0
   20712 O1   65   DMPC HS   HAL1   0.090000        1.0079           0
   20713 O1   65   DMPC O21  OSL   -0.490000       15.9994           0
   20714 O1   65   DMPC C21  CL     0.900000       12.0107           0
   20715 O1   65   DMPC O22  OBL   -0.630000       15.9994           0
   20716 O1   65   DMPC C22  CTL2  -0.220000       12.0107           0
   20717 O1   65   DMPC H2R  HAL2   0.090000        1.0079           0
   20718 O1   65   DMPC H2S  HAL2   0.090000        1.0079           0
   20719 O1   65   DMPC C3   CTL2   0.080000       12.0107           0
   20720 O1   65   DMPC HX   HAL2   0.090000        1.0079           0
   20721 O1   65   DMPC HY   HAL2   0.090000        1.0079           0
   20722 O1   65   DMPC O31  OSL   -0.490000       15.9994           0
   20723 O1   65   DMPC C31  CL     0.900000       12.0107           0
   20724 O1   65   DMPC O32  OBL   -0.630000       15.9994           0
   20725 O1   65   DMPC C32  CTL2  -0.220000       12.0107           0
   20726 O1   65   DMPC H2X  HAL2   0.090000        1.0079           0
   20727 O1   65   DMPC H2Y  HAL2   0.090000        1.0079           0
   20728 O1   65   DMPC C23  CTL2  -0.180000       12.0107           0
   20729 O1   65   DMPC H3R  HAL2   0.090000        1.0079           0
   20730 O1   65   DMPC H3S  HAL2   0.090000        1.0079           0
   20731 O1   65   DMPC C24  CTL2  -0.180000       12.0107           0
   20732 O1   65   DMPC H4R  HAL2   0.090000        1.0079           0
   20733 O1   65   DMPC H4S  HAL2   0.090000        1.0079           0
   20734 O1   65   DMPC C25  CTL2  -0.180000       12.0107           0
   20735 O1   65   DMPC H5R  HAL2   0.090000        1.0079           0
   20736 O1   65   DMPC H5S  HAL2   0.090000        1.0079           0
   20737 O1   65   DMPC C26  CTL2  -0.180000       12.0107           0
   20738 O1   65   DMPC H6R  HAL2   0.090000        1.0079           0
   20739 O1   65   DMPC H6S  HAL2   0.090000        1.0079           0
   20740 O1   65   DMPC C27  CTL2  -0.180000       12.0107           0
   20741 O1   65   DMPC H7R  HAL2   0.090000        1.0079           0
   20742 O1   65   DMPC H7S  HAL2   0.090000        1.0079           0
   20743 O1   65   DMPC C28  CTL2  -0.180000       12.0107           0
   20744 O1   65   DMPC H8R  HAL2   0.090000        1.0079           0
   20745 O1   65   DMPC H8S  HAL2   0.090000        1.0079           0
   20746 O1   65   DMPC C29  CTL2  -0.180000       12.0107           0
   20747 O1   65   DMPC H9R  HAL2   0.090000        1.0079           0
   20748 O1   65   DMPC H9S  HAL2   0.090000        1.0079           0
   20749 O1   65   DMPC C210 CTL2  -0.180000       12.0107           0
   20750 O1   65   DMPC H10R HAL2   0.090000        1.0079           0
   20751 O1   65   DMPC H10S HAL2   0.090000        1.0079           0
   20752 O1   65   DMPC C211 CTL2  -0.180000       12.0107           0
   20753 O1   65   DMPC H11R HAL2   0.090000        1.0079           0
   20754 O1   65   DMPC H11S HAL2   0.090000        1.0079           0
   20755 O1   65   DMPC C212 CTL2  -0.180000       12.0107           0
   20756 O1   65   DMPC H12R HAL2   0.090000        1.0079           0
   20757 O1   65   DMPC H12S HAL2   0.090000        1.0079           0
   20758 O1   65   DMPC C213 CTL2  -0.180000       12.0107           0
   20759 O1   65   DMPC H13R HAL2   0.090000        1.0079           0
   20760 O1   65   DMPC H13S HAL2   0.090000        1.0079           0
   20761 O1   65   DMPC C214 CTL3  -0.270000       12.0107           0
   20762 O1   65   DMPC H14R HAL3   0.090000        1.0079           0
   20763 O1   65   DMPC H14S HAL3   0.090000        1.0079           0
   20764 O1   65   DMPC H14T HAL3   0.090000        1.0079           0
   20765 O1   65   DMPC C33  CTL2  -0.180000       12.0107           0
   20766 O1   65   DMPC H3X  HAL2   0.090000        1.0079           0
   20767 O1   65   DMPC H3Y  HAL2   0.090000        1.0079           0
   20768 O1   65   DMPC C34  CTL2  -0.180000       12.0107           0
   20769 O1   65   DMPC H4X  HAL2   0.090000        1.0079           0
   20770 O1   65   DMPC H4Y  HAL2   0.090000        1.0079           0
   20771 O1   65   DMPC C35  CTL2  -0.180000       12.0107           0
   20772 O1   65   DMPC H5X  HAL2   0.090000        1.0079           0
   20773 O1   65   DMPC H5Y  HAL2   0.090000        1.0079           0
   20774 O1   65   DMPC C36  CTL2  -0.180000       12.0107           0
   20775 O1   65   DMPC H6X  HAL2   0.090000        1.0079           0
   20776 O1   65   DMPC H6Y  HAL2   0.090000        1.0079           0
   20777 O1   65   DMPC C37  CTL2  -0.180000       12.0107           0
   20778 O1   65   DMPC H7X  HAL2   0.090000        1.0079           0
   20779 O1   65   DMPC H7Y  HAL2   0.090000        1.0079           0
   20780 O1   65   DMPC C38  CTL2  -0.180000       12.0107           0
   20781 O1   65   DMPC H8X  HAL2   0.090000        1.0079           0
   20782 O1   65   DMPC H8Y  HAL2   0.090000        1.0079           0
   20783 O1   65   DMPC C39  CTL2  -0.180000       12.0107           0
   20784 O1   65   DMPC H9X  HAL2   0.090000        1.0079           0
   20785 O1   65   DMPC H9Y  HAL2   0.090000        1.0079           0
   20786 O1   65   DMPC C310 CTL2  -0.180000       12.0107           0
   20787 O1   65   DMPC H10X HAL2   0.090000        1.0079           0
   20788 O1   65   DMPC H10Y HAL2   0.090000        1.0079           0
   20789 O1   65   DMPC C311 CTL2  -0.180000       12.0107           0
   20790 O1   65   DMPC H11X HAL2   0.090000        1.0079           0
   20791 O1   65   DMPC H11Y HAL2   0.090000        1.0079           0
   20792 O1   65   DMPC C312 CTL2  -0.180000       12.0107           0
   20793 O1   65   DMPC H12X HAL2   0.090000        1.0079           0
   20794 O1   65   DMPC H12Y HAL2   0.090000        1.0079           0
   20795 O1   65   DMPC C313 CTL2  -0.180000       12.0107           0
   20796 O1   65   DMPC H13X HAL2   0.090000        1.0079           0
   20797 O1   65   DMPC H13Y HAL2   0.090000        1.0079           0
   20798 O1   65   DMPC C314 CTL3  -0.270000       12.0107           0
   20799 O1   65   DMPC H14X HAL3   0.090000        1.0079           0
   20800 O1   65   DMPC H14Y HAL3   0.090000        1.0079           0
   20801 O1   65   DMPC H14Z HAL3   0.090000        1.0079           0
   20802 O1   66   DMPC N    NTL   -0.600000       14.0067           0
   20803 O1   66   DMPC C13  CTL5  -0.350000       12.0107           0
   20804 O1   66   DMPC H13A HL     0.250000        1.0079           0
   20805 O1   66   DMPC H13B HL     0.250000        1.0079           0
   20806 O1   66   DMPC H13C HL     0.250000        1.0079           0
   20807 O1   66   DMPC C14  CTL5  -0.350000       12.0107           0
   20808 O1   66   DMPC H14A HL     0.250000        1.0079           0
   20809 O1   66   DMPC H14B HL     0.250000        1.0079           0
   20810 O1   66   DMPC H14C HL     0.250000        1.0079           0
   20811 O1   66   DMPC C15  CTL5  -0.350000       12.0107           0
   20812 O1   66   DMPC H15A HL     0.250000        1.0079           0
   20813 O1   66   DMPC H15B HL     0.250000        1.0079           0
   20814 O1   66   DMPC H15C HL     0.250000        1.0079           0
   20815 O1   66   DMPC C12  CTL2  -0.100000       12.0107           0
   20816 O1   66   DMPC H12A HL     0.250000        1.0079           0
   20817 O1   66   DMPC H12B HL     0.250000        1.0079           0
   20818 O1   66   DMPC C11  CTL2  -0.080000       12.0107           0
   20819 O1   66   DMPC H11A HAL2   0.090000        1.0079           0
   20820 O1   66   DMPC H11B HAL2   0.090000        1.0079           0
   20821 O1   66   DMPC P    PL     1.500000       30.9738           0
   20822 O1   66   DMPC O13  O2L   -0.780000       15.9994           0
   20823 O1   66   DMPC O14  O2L   -0.780000       15.9994           0
   20824 O1   66   DMPC O11  OSLP  -0.570000       15.9994           0
   20825 O1   66   DMPC O12  OSLP  -0.570000       15.9994           0
   20826 O1   66   DMPC C1   CTL2  -0.080000       12.0107           0
   20827 O1   66   DMPC HA   HAL2   0.090000        1.0079           0
   20828 O1   66   DMPC HB   HAL2   0.090000        1.0079           0
   20829 O1   66   DMPC C2   CTL1   0.170000       12.0107           0
   20830 O1   66   DMPC HS   HAL1   0.090000        1.0079           0
   20831 O1   66   DMPC O21  OSL   -0.490000       15.9994           0
   20832 O1   66   DMPC C21  CL     0.900000       12.0107           0
   20833 O1   66   DMPC O22  OBL   -0.630000       15.9994           0
   20834 O1   66   DMPC C22  CTL2  -0.220000       12.0107           0
   20835 O1   66   DMPC H2R  HAL2   0.090000        1.0079           0
   20836 O1   66   DMPC H2S  HAL2   0.090000        1.0079           0
   20837 O1   66   DMPC C3   CTL2   0.080000       12.0107           0
   20838 O1   66   DMPC HX   HAL2   0.090000        1.0079           0
   20839 O1   66   DMPC HY   HAL2   0.090000        1.0079           0
   20840 O1   66   DMPC O31  OSL   -0.490000       15.9994           0
   20841 O1   66   DMPC C31  CL     0.900000       12.0107           0
   20842 O1   66   DMPC O32  OBL   -0.630000       15.9994           0
   20843 O1   66   DMPC C32  CTL2  -0.220000       12.0107           0
   20844 O1   66   DMPC H2X  HAL2   0.090000        1.0079           0
   20845 O1   66   DMPC H2Y  HAL2   0.090000        1.0079           0
   20846 O1   66   DMPC C23  CTL2  -0.180000       12.0107           0
   20847 O1   66   DMPC H3R  HAL2   0.090000        1.0079           0
   20848 O1   66   DMPC H3S  HAL2   0.090000        1.0079           0
   20849 O1   66   DMPC C24  CTL2  -0.180000       12.0107           0
   20850 O1   66   DMPC H4R  HAL2   0.090000        1.0079           0
   20851 O1   66   DMPC H4S  HAL2   0.090000        1.0079           0
   20852 O1   66   DMPC C25  CTL2  -0.180000       12.0107           0
   20853 O1   66   DMPC H5R  HAL2   0.090000        1.0079           0
   20854 O1   66   DMPC H5S  HAL2   0.090000        1.0079           0
   20855 O1   66   DMPC C26  CTL2  -0.180000       12.0107           0
   20856 O1   66   DMPC H6R  HAL2   0.090000        1.0079           0
   20857 O1   66   DMPC H6S  HAL2   0.090000        1.0079           0
   20858 O1   66   DMPC C27  CTL2  -0.180000       12.0107           0
   20859 O1   66   DMPC H7R  HAL2   0.090000        1.0079           0
   20860 O1   66   DMPC H7S  HAL2   0.090000        1.0079           0
   20861 O1   66   DMPC C28  CTL2  -0.180000       12.0107           0
   20862 O1   66   DMPC H8R  HAL2   0.090000        1.0079           0
   20863 O1   66   DMPC H8S  HAL2   0.090000        1.0079           0
   20864 O1   66   DMPC C29  CTL2  -0.180000       12.0107           0
   20865 O1   66   DMPC H9R  HAL2   0.090000        1.0079           0
   20866 O1   66   DMPC H9S  HAL2   0.090000        1.0079           0
   20867 O1   66   DMPC C210 CTL2  -0.180000       12.0107           0
   20868 O1   66   DMPC H10R HAL2   0.090000        1.0079           0
   20869 O1   66   DMPC H10S HAL2   0.090000        1.0079           0
   20870 O1   66   DMPC C211 CTL2  -0.180000       12.0107           0
   20871 O1   66   DMPC H11R HAL2   0.090000        1.0079           0
   20872 O1   66   DMPC H11S HAL2   0.090000        1.0079           0
   20873 O1   66   DMPC C212 CTL2  -0.180000       12.0107           0
   20874 O1   66   DMPC H12R HAL2   0.090000        1.0079           0
   20875 O1   66   DMPC H12S HAL2   0.090000        1.0079           0
   20876 O1   66   DMPC C213 CTL2  -0.180000       12.0107           0
   20877 O1   66   DMPC H13R HAL2   0.090000        1.0079           0
   20878 O1   66   DMPC H13S HAL2   0.090000        1.0079           0
   20879 O1   66   DMPC C214 CTL3  -0.270000       12.0107           0
   20880 O1   66   DMPC H14R HAL3   0.090000        1.0079           0
   20881 O1   66   DMPC H14S HAL3   0.090000        1.0079           0
   20882 O1   66   DMPC H14T HAL3   0.090000        1.0079           0
   20883 O1   66   DMPC C33  CTL2  -0.180000       12.0107           0
   20884 O1   66   DMPC H3X  HAL2   0.090000        1.0079           0
   20885 O1   66   DMPC H3Y  HAL2   0.090000        1.0079           0
   20886 O1   66   DMPC C34  CTL2  -0.180000       12.0107           0
   20887 O1   66   DMPC H4X  HAL2   0.090000        1.0079           0
   20888 O1   66   DMPC H4Y  HAL2   0.090000        1.0079           0
   20889 O1   66   DMPC C35  CTL2  -0.180000       12.0107           0
   20890 O1   66   DMPC H5X  HAL2   0.090000        1.0079           0
   20891 O1   66   DMPC H5Y  HAL2   0.090000        1.0079           0
   20892 O1   66   DMPC C36  CTL2  -0.180000       12.0107           0
   20893 O1   66   DMPC H6X  HAL2   0.090000        1.0079           0
   20894 O1   66   DMPC H6Y  HAL2   0.090000        1.0079           0
   20895 O1   66   DMPC C37  CTL2  -0.180000       12.0107           0
   20896 O1   66   DMPC H7X  HAL2   0.090000        1.0079           0
   20897 O1   66   DMPC H7Y  HAL2   0.090000        1.0079           0
   20898 O1   66   DMPC C38  CTL2  -0.180000       12.0107           0
   20899 O1   66   DMPC H8X  HAL2   0.090000        1.0079           0
   20900 O1   66   DMPC H8Y  HAL2   0.090000        1.0079           0
   20901 O1   66   DMPC C39  CTL2  -0.180000       12.0107           0
   20902 O1   66   DMPC H9X  HAL2   0.090000        1.0079           0
   20903 O1   66   DMPC H9Y  HAL2   0.090000        1.0079           0
   20904 O1   66   DMPC C310 CTL2  -0.180000       12.0107           0
   20905 O1   66   DMPC H10X HAL2   0.090000        1.0079           0
   20906 O1   66   DMPC H10Y HAL2   0.090000        1.0079           0
   20907 O1   66   DMPC C311 CTL2  -0.180000       12.0107           0
   20908 O1   66   DMPC H11X HAL2   0.090000        1.0079           0
   20909 O1   66   DMPC H11Y HAL2   0.090000        1.0079           0
   20910 O1   66   DMPC C312 CTL2  -0.180000       12.0107           0
   20911 O1   66   DMPC H12X HAL2   0.090000        1.0079           0
   20912 O1   66   DMPC H12Y HAL2   0.090000        1.0079           0
   20913 O1   66   DMPC C313 CTL2  -0.180000       12.0107           0
   20914 O1   66   DMPC H13X HAL2   0.090000        1.0079           0
   20915 O1   66   DMPC H13Y HAL2   0.090000        1.0079           0
   20916 O1   66   DMPC C314 CTL3  -0.270000       12.0107           0
   20917 O1   66   DMPC H14X HAL3   0.090000        1.0079           0
   20918 O1   66   DMPC H14Y HAL3   0.090000        1.0079           0
   20919 O1   66   DMPC H14Z HAL3   0.090000        1.0079           0
   20920 O1   67   DMPC N    NTL   -0.600000       14.0067           0
   20921 O1   67   DMPC C13  CTL5  -0.350000       12.0107           0
   20922 O1   67   DMPC H13A HL     0.250000        1.0079           0
   20923 O1   67   DMPC H13B HL     0.250000        1.0079           0
   20924 O1   67   DMPC H13C HL     0.250000        1.0079           0
   20925 O1   67   DMPC C14  CTL5  -0.350000       12.0107           0
   20926 O1   67   DMPC H14A HL     0.250000        1.0079           0
   20927 O1   67   DMPC H14B HL     0.250000        1.0079           0
   20928 O1   67   DMPC H14C HL     0.250000        1.0079           0
   20929 O1   67   DMPC C15  CTL5  -0.350000       12.0107           0
   20930 O1   67   DMPC H15A HL     0.250000        1.0079           0
   20931 O1   67   DMPC H15B HL     0.250000        1.0079           0
   20932 O1   67   DMPC H15C HL     0.250000        1.0079           0
   20933 O1   67   DMPC C12  CTL2  -0.100000       12.0107           0
   20934 O1   67   DMPC H12A HL     0.250000        1.0079           0
   20935 O1   67   DMPC H12B HL     0.250000        1.0079           0
   20936 O1   67   DMPC C11  CTL2  -0.080000       12.0107           0
   20937 O1   67   DMPC H11A HAL2   0.090000        1.0079           0
   20938 O1   67   DMPC H11B HAL2   0.090000        1.0079           0
   20939 O1   67   DMPC P    PL     1.500000       30.9738           0
   20940 O1   67   DMPC O13  O2L   -0.780000       15.9994           0
   20941 O1   67   DMPC O14  O2L   -0.780000       15.9994           0
   20942 O1   67   DMPC O11  OSLP  -0.570000       15.9994           0
   20943 O1   67   DMPC O12  OSLP  -0.570000       15.9994           0
   20944 O1   67   DMPC C1   CTL2  -0.080000       12.0107           0
   20945 O1   67   DMPC HA   HAL2   0.090000        1.0079           0
   20946 O1   67   DMPC HB   HAL2   0.090000        1.0079           0
   20947 O1   67   DMPC C2   CTL1   0.170000       12.0107           0
   20948 O1   67   DMPC HS   HAL1   0.090000        1.0079           0
   20949 O1   67   DMPC O21  OSL   -0.490000       15.9994           0
   20950 O1   67   DMPC C21  CL     0.900000       12.0107           0
   20951 O1   67   DMPC O22  OBL   -0.630000       15.9994           0
   20952 O1   67   DMPC C22  CTL2  -0.220000       12.0107           0
   20953 O1   67   DMPC H2R  HAL2   0.090000        1.0079           0
   20954 O1   67   DMPC H2S  HAL2   0.090000        1.0079           0
   20955 O1   67   DMPC C3   CTL2   0.080000       12.0107           0
   20956 O1   67   DMPC HX   HAL2   0.090000        1.0079           0
   20957 O1   67   DMPC HY   HAL2   0.090000        1.0079           0
   20958 O1   67   DMPC O31  OSL   -0.490000       15.9994           0
   20959 O1   67   DMPC C31  CL     0.900000       12.0107           0
   20960 O1   67   DMPC O32  OBL   -0.630000       15.9994           0
   20961 O1   67   DMPC C32  CTL2  -0.220000       12.0107           0
   20962 O1   67   DMPC H2X  HAL2   0.090000        1.0079           0
   20963 O1   67   DMPC H2Y  HAL2   0.090000        1.0079           0
   20964 O1   67   DMPC C23  CTL2  -0.180000       12.0107           0
   20965 O1   67   DMPC H3R  HAL2   0.090000        1.0079           0
   20966 O1   67   DMPC H3S  HAL2   0.090000        1.0079           0
   20967 O1   67   DMPC C24  CTL2  -0.180000       12.0107           0
   20968 O1   67   DMPC H4R  HAL2   0.090000        1.0079           0
   20969 O1   67   DMPC H4S  HAL2   0.090000        1.0079           0
   20970 O1   67   DMPC C25  CTL2  -0.180000       12.0107           0
   20971 O1   67   DMPC H5R  HAL2   0.090000        1.0079           0
   20972 O1   67   DMPC H5S  HAL2   0.090000        1.0079           0
   20973 O1   67   DMPC C26  CTL2  -0.180000       12.0107           0
   20974 O1   67   DMPC H6R  HAL2   0.090000        1.0079           0
   20975 O1   67   DMPC H6S  HAL2   0.090000        1.0079           0
   20976 O1   67   DMPC C27  CTL2  -0.180000       12.0107           0
   20977 O1   67   DMPC H7R  HAL2   0.090000        1.0079           0
   20978 O1   67   DMPC H7S  HAL2   0.090000        1.0079           0
   20979 O1   67   DMPC C28  CTL2  -0.180000       12.0107           0
   20980 O1   67   DMPC H8R  HAL2   0.090000        1.0079           0
   20981 O1   67   DMPC H8S  HAL2   0.090000        1.0079           0
   20982 O1   67   DMPC C29  CTL2  -0.180000       12.0107           0
   20983 O1   67   DMPC H9R  HAL2   0.090000        1.0079           0
   20984 O1   67   DMPC H9S  HAL2   0.090000        1.0079           0
   20985 O1   67   DMPC C210 CTL2  -0.180000       12.0107           0
   20986 O1   67   DMPC H10R HAL2   0.090000        1.0079           0
   20987 O1   67   DMPC H10S HAL2   0.090000        1.0079           0
   20988 O1   67   DMPC C211 CTL2  -0.180000       12.0107           0
   20989 O1   67   DMPC H11R HAL2   0.090000        1.0079           0
   20990 O1   67   DMPC H11S HAL2   0.090000        1.0079           0
   20991 O1   67   DMPC C212 CTL2  -0.180000       12.0107           0
   20992 O1   67   DMPC H12R HAL2   0.090000        1.0079           0
   20993 O1   67   DMPC H12S HAL2   0.090000        1.0079           0
   20994 O1   67   DMPC C213 CTL2  -0.180000       12.0107           0
   20995 O1   67   DMPC H13R HAL2   0.090000        1.0079           0
   20996 O1   67   DMPC H13S HAL2   0.090000        1.0079           0
   20997 O1   67   DMPC C214 CTL3  -0.270000       12.0107           0
   20998 O1   67   DMPC H14R HAL3   0.090000        1.0079           0
   20999 O1   67   DMPC H14S HAL3   0.090000        1.0079           0
   21000 O1   67   DMPC H14T HAL3   0.090000        1.0079           0
   21001 O1   67   DMPC C33  CTL2  -0.180000       12.0107           0
   21002 O1   67   DMPC H3X  HAL2   0.090000        1.0079           0
   21003 O1   67   DMPC H3Y  HAL2   0.090000        1.0079           0
   21004 O1   67   DMPC C34  CTL2  -0.180000       12.0107           0
   21005 O1   67   DMPC H4X  HAL2   0.090000        1.0079           0
   21006 O1   67   DMPC H4Y  HAL2   0.090000        1.0079           0
   21007 O1   67   DMPC C35  CTL2  -0.180000       12.0107           0
   21008 O1   67   DMPC H5X  HAL2   0.090000        1.0079           0
   21009 O1   67   DMPC H5Y  HAL2   0.090000        1.0079           0
   21010 O1   67   DMPC C36  CTL2  -0.180000       12.0107           0
   21011 O1   67   DMPC H6X  HAL2   0.090000        1.0079           0
   21012 O1   67   DMPC H6Y  HAL2   0.090000        1.0079           0
   21013 O1   67   DMPC C37  CTL2  -0.180000       12.0107           0
   21014 O1   67   DMPC H7X  HAL2   0.090000        1.0079           0
   21015 O1   67   DMPC H7Y  HAL2   0.090000        1.0079           0
   21016 O1   67   DMPC C38  CTL2  -0.180000       12.0107           0
   21017 O1   67   DMPC H8X  HAL2   0.090000        1.0079           0
   21018 O1   67   DMPC H8Y  HAL2   0.090000        1.0079           0
   21019 O1   67   DMPC C39  CTL2  -0.180000       12.0107           0
   21020 O1   67   DMPC H9X  HAL2   0.090000        1.0079           0
   21021 O1   67   DMPC H9Y  HAL2   0.090000        1.0079           0
   21022 O1   67   DMPC C310 CTL2  -0.180000       12.0107           0
   21023 O1   67   DMPC H10X HAL2   0.090000        1.0079           0
   21024 O1   67   DMPC H10Y HAL2   0.090000        1.0079           0
   21025 O1   67   DMPC C311 CTL2  -0.180000       12.0107           0
   21026 O1   67   DMPC H11X HAL2   0.090000        1.0079           0
   21027 O1   67   DMPC H11Y HAL2   0.090000        1.0079           0
   21028 O1   67   DMPC C312 CTL2  -0.180000       12.0107           0
   21029 O1   67   DMPC H12X HAL2   0.090000        1.0079           0
   21030 O1   67   DMPC H12Y HAL2   0.090000        1.0079           0
   21031 O1   67   DMPC C313 CTL2  -0.180000       12.0107           0
   21032 O1   67   DMPC H13X HAL2   0.090000        1.0079           0
   21033 O1   67   DMPC H13Y HAL2   0.090000        1.0079           0
   21034 O1   67   DMPC C314 CTL3  -0.270000       12.0107           0
   21035 O1   67   DMPC H14X HAL3   0.090000        1.0079           0
   21036 O1   67   DMPC H14Y HAL3   0.090000        1.0079           0
   21037 O1   67   DMPC H14Z HAL3   0.090000        1.0079           0
   21038 O1   68   DMPC N    NTL   -0.600000       14.0067           0
   21039 O1   68   DMPC C13  CTL5  -0.350000       12.0107           0
   21040 O1   68   DMPC H13A HL     0.250000        1.0079           0
   21041 O1   68   DMPC H13B HL     0.250000        1.0079           0
   21042 O1   68   DMPC H13C HL     0.250000        1.0079           0
   21043 O1   68   DMPC C14  CTL5  -0.350000       12.0107           0
   21044 O1   68   DMPC H14A HL     0.250000        1.0079           0
   21045 O1   68   DMPC H14B HL     0.250000        1.0079           0
   21046 O1   68   DMPC H14C HL     0.250000        1.0079           0
   21047 O1   68   DMPC C15  CTL5  -0.350000       12.0107           0
   21048 O1   68   DMPC H15A HL     0.250000        1.0079           0
   21049 O1   68   DMPC H15B HL     0.250000        1.0079           0
   21050 O1   68   DMPC H15C HL     0.250000        1.0079           0
   21051 O1   68   DMPC C12  CTL2  -0.100000       12.0107           0
   21052 O1   68   DMPC H12A HL     0.250000        1.0079           0
   21053 O1   68   DMPC H12B HL     0.250000        1.0079           0
   21054 O1   68   DMPC C11  CTL2  -0.080000       12.0107           0
   21055 O1   68   DMPC H11A HAL2   0.090000        1.0079           0
   21056 O1   68   DMPC H11B HAL2   0.090000        1.0079           0
   21057 O1   68   DMPC P    PL     1.500000       30.9738           0
   21058 O1   68   DMPC O13  O2L   -0.780000       15.9994           0
   21059 O1   68   DMPC O14  O2L   -0.780000       15.9994           0
   21060 O1   68   DMPC O11  OSLP  -0.570000       15.9994           0
   21061 O1   68   DMPC O12  OSLP  -0.570000       15.9994           0
   21062 O1   68   DMPC C1   CTL2  -0.080000       12.0107           0
   21063 O1   68   DMPC HA   HAL2   0.090000        1.0079           0
   21064 O1   68   DMPC HB   HAL2   0.090000        1.0079           0
   21065 O1   68   DMPC C2   CTL1   0.170000       12.0107           0
   21066 O1   68   DMPC HS   HAL1   0.090000        1.0079           0
   21067 O1   68   DMPC O21  OSL   -0.490000       15.9994           0
   21068 O1   68   DMPC C21  CL     0.900000       12.0107           0
   21069 O1   68   DMPC O22  OBL   -0.630000       15.9994           0
   21070 O1   68   DMPC C22  CTL2  -0.220000       12.0107           0
   21071 O1   68   DMPC H2R  HAL2   0.090000        1.0079           0
   21072 O1   68   DMPC H2S  HAL2   0.090000        1.0079           0
   21073 O1   68   DMPC C3   CTL2   0.080000       12.0107           0
   21074 O1   68   DMPC HX   HAL2   0.090000        1.0079           0
   21075 O1   68   DMPC HY   HAL2   0.090000        1.0079           0
   21076 O1   68   DMPC O31  OSL   -0.490000       15.9994           0
   21077 O1   68   DMPC C31  CL     0.900000       12.0107           0
   21078 O1   68   DMPC O32  OBL   -0.630000       15.9994           0
   21079 O1   68   DMPC C32  CTL2  -0.220000       12.0107           0
   21080 O1   68   DMPC H2X  HAL2   0.090000        1.0079           0
   21081 O1   68   DMPC H2Y  HAL2   0.090000        1.0079           0
   21082 O1   68   DMPC C23  CTL2  -0.180000       12.0107           0
   21083 O1   68   DMPC H3R  HAL2   0.090000        1.0079           0
   21084 O1   68   DMPC H3S  HAL2   0.090000        1.0079           0
   21085 O1   68   DMPC C24  CTL2  -0.180000       12.0107           0
   21086 O1   68   DMPC H4R  HAL2   0.090000        1.0079           0
   21087 O1   68   DMPC H4S  HAL2   0.090000        1.0079           0
   21088 O1   68   DMPC C25  CTL2  -0.180000       12.0107           0
   21089 O1   68   DMPC H5R  HAL2   0.090000        1.0079           0
   21090 O1   68   DMPC H5S  HAL2   0.090000        1.0079           0
   21091 O1   68   DMPC C26  CTL2  -0.180000       12.0107           0
   21092 O1   68   DMPC H6R  HAL2   0.090000        1.0079           0
   21093 O1   68   DMPC H6S  HAL2   0.090000        1.0079           0
   21094 O1   68   DMPC C27  CTL2  -0.180000       12.0107           0
   21095 O1   68   DMPC H7R  HAL2   0.090000        1.0079           0
   21096 O1   68   DMPC H7S  HAL2   0.090000        1.0079           0
   21097 O1   68   DMPC C28  CTL2  -0.180000       12.0107           0
   21098 O1   68   DMPC H8R  HAL2   0.090000        1.0079           0
   21099 O1   68   DMPC H8S  HAL2   0.090000        1.0079           0
   21100 O1   68   DMPC C29  CTL2  -0.180000       12.0107           0
   21101 O1   68   DMPC H9R  HAL2   0.090000        1.0079           0
   21102 O1   68   DMPC H9S  HAL2   0.090000        1.0079           0
   21103 O1   68   DMPC C210 CTL2  -0.180000       12.0107           0
   21104 O1   68   DMPC H10R HAL2   0.090000        1.0079           0
   21105 O1   68   DMPC H10S HAL2   0.090000        1.0079           0
   21106 O1   68   DMPC C211 CTL2  -0.180000       12.0107           0
   21107 O1   68   DMPC H11R HAL2   0.090000        1.0079           0
   21108 O1   68   DMPC H11S HAL2   0.090000        1.0079           0
   21109 O1   68   DMPC C212 CTL2  -0.180000       12.0107           0
   21110 O1   68   DMPC H12R HAL2   0.090000        1.0079           0
   21111 O1   68   DMPC H12S HAL2   0.090000        1.0079           0
   21112 O1   68   DMPC C213 CTL2  -0.180000       12.0107           0
   21113 O1   68   DMPC H13R HAL2   0.090000        1.0079           0
   21114 O1   68   DMPC H13S HAL2   0.090000        1.0079           0
   21115 O1   68   DMPC C214 CTL3  -0.270000       12.0107           0
   21116 O1   68   DMPC H14R HAL3   0.090000        1.0079           0
   21117 O1   68   DMPC H14S HAL3   0.090000        1.0079           0
   21118 O1   68   DMPC H14T HAL3   0.090000        1.0079           0
   21119 O1   68   DMPC C33  CTL2  -0.180000       12.0107           0
   21120 O1   68   DMPC H3X  HAL2   0.090000        1.0079           0
   21121 O1   68   DMPC H3Y  HAL2   0.090000        1.0079           0
   21122 O1   68   DMPC C34  CTL2  -0.180000       12.0107           0
   21123 O1   68   DMPC H4X  HAL2   0.090000        1.0079           0
   21124 O1   68   DMPC H4Y  HAL2   0.090000        1.0079           0
   21125 O1   68   DMPC C35  CTL2  -0.180000       12.0107           0
   21126 O1   68   DMPC H5X  HAL2   0.090000        1.0079           0
   21127 O1   68   DMPC H5Y  HAL2   0.090000        1.0079           0
   21128 O1   68   DMPC C36  CTL2  -0.180000       12.0107           0
   21129 O1   68   DMPC H6X  HAL2   0.090000        1.0079           0
   21130 O1   68   DMPC H6Y  HAL2   0.090000        1.0079           0
   21131 O1   68   DMPC C37  CTL2  -0.180000       12.0107           0
   21132 O1   68   DMPC H7X  HAL2   0.090000        1.0079           0
   21133 O1   68   DMPC H7Y  HAL2   0.090000        1.0079           0
   21134 O1   68   DMPC C38  CTL2  -0.180000       12.0107           0
   21135 O1   68   DMPC H8X  HAL2   0.090000        1.0079           0
   21136 O1   68   DMPC H8Y  HAL2   0.090000        1.0079           0
   21137 O1   68   DMPC C39  CTL2  -0.180000       12.0107           0
   21138 O1   68   DMPC H9X  HAL2   0.090000        1.0079           0
   21139 O1   68   DMPC H9Y  HAL2   0.090000        1.0079           0
   21140 O1   68   DMPC C310 CTL2  -0.180000       12.0107           0
   21141 O1   68   DMPC H10X HAL2   0.090000        1.0079           0
   21142 O1   68   DMPC H10Y HAL2   0.090000        1.0079           0
   21143 O1   68   DMPC C311 CTL2  -0.180000       12.0107           0
   21144 O1   68   DMPC H11X HAL2   0.090000        1.0079           0
   21145 O1   68   DMPC H11Y HAL2   0.090000        1.0079           0
   21146 O1   68   DMPC C312 CTL2  -0.180000       12.0107           0
   21147 O1   68   DMPC H12X HAL2   0.090000        1.0079           0
   21148 O1   68   DMPC H12Y HAL2   0.090000        1.0079           0
   21149 O1   68   DMPC C313 CTL2  -0.180000       12.0107           0
   21150 O1   68   DMPC H13X HAL2   0.090000        1.0079           0
   21151 O1   68   DMPC H13Y HAL2   0.090000        1.0079           0
   21152 O1   68   DMPC C314 CTL3  -0.270000       12.0107           0
   21153 O1   68   DMPC H14X HAL3   0.090000        1.0079           0
   21154 O1   68   DMPC H14Y HAL3   0.090000        1.0079           0
   21155 O1   68   DMPC H14Z HAL3   0.090000        1.0079           0
   21156 O1   69   DMPC N    NTL   -0.600000       14.0067           0
   21157 O1   69   DMPC C13  CTL5  -0.350000       12.0107           0
   21158 O1   69   DMPC H13A HL     0.250000        1.0079           0
   21159 O1   69   DMPC H13B HL     0.250000        1.0079           0
   21160 O1   69   DMPC H13C HL     0.250000        1.0079           0
   21161 O1   69   DMPC C14  CTL5  -0.350000       12.0107           0
   21162 O1   69   DMPC H14A HL     0.250000        1.0079           0
   21163 O1   69   DMPC H14B HL     0.250000        1.0079           0
   21164 O1   69   DMPC H14C HL     0.250000        1.0079           0
   21165 O1   69   DMPC C15  CTL5  -0.350000       12.0107           0
   21166 O1   69   DMPC H15A HL     0.250000        1.0079           0
   21167 O1   69   DMPC H15B HL     0.250000        1.0079           0
   21168 O1   69   DMPC H15C HL     0.250000        1.0079           0
   21169 O1   69   DMPC C12  CTL2  -0.100000       12.0107           0
   21170 O1   69   DMPC H12A HL     0.250000        1.0079           0
   21171 O1   69   DMPC H12B HL     0.250000        1.0079           0
   21172 O1   69   DMPC C11  CTL2  -0.080000       12.0107           0
   21173 O1   69   DMPC H11A HAL2   0.090000        1.0079           0
   21174 O1   69   DMPC H11B HAL2   0.090000        1.0079           0
   21175 O1   69   DMPC P    PL     1.500000       30.9738           0
   21176 O1   69   DMPC O13  O2L   -0.780000       15.9994           0
   21177 O1   69   DMPC O14  O2L   -0.780000       15.9994           0
   21178 O1   69   DMPC O11  OSLP  -0.570000       15.9994           0
   21179 O1   69   DMPC O12  OSLP  -0.570000       15.9994           0
   21180 O1   69   DMPC C1   CTL2  -0.080000       12.0107           0
   21181 O1   69   DMPC HA   HAL2   0.090000        1.0079           0
   21182 O1   69   DMPC HB   HAL2   0.090000        1.0079           0
   21183 O1   69   DMPC C2   CTL1   0.170000       12.0107           0
   21184 O1   69   DMPC HS   HAL1   0.090000        1.0079           0
   21185 O1   69   DMPC O21  OSL   -0.490000       15.9994           0
   21186 O1   69   DMPC C21  CL     0.900000       12.0107           0
   21187 O1   69   DMPC O22  OBL   -0.630000       15.9994           0
   21188 O1   69   DMPC C22  CTL2  -0.220000       12.0107           0
   21189 O1   69   DMPC H2R  HAL2   0.090000        1.0079           0
   21190 O1   69   DMPC H2S  HAL2   0.090000        1.0079           0
   21191 O1   69   DMPC C3   CTL2   0.080000       12.0107           0
   21192 O1   69   DMPC HX   HAL2   0.090000        1.0079           0
   21193 O1   69   DMPC HY   HAL2   0.090000        1.0079           0
   21194 O1   69   DMPC O31  OSL   -0.490000       15.9994           0
   21195 O1   69   DMPC C31  CL     0.900000       12.0107           0
   21196 O1   69   DMPC O32  OBL   -0.630000       15.9994           0
   21197 O1   69   DMPC C32  CTL2  -0.220000       12.0107           0
   21198 O1   69   DMPC H2X  HAL2   0.090000        1.0079           0
   21199 O1   69   DMPC H2Y  HAL2   0.090000        1.0079           0
   21200 O1   69   DMPC C23  CTL2  -0.180000       12.0107           0
   21201 O1   69   DMPC H3R  HAL2   0.090000        1.0079           0
   21202 O1   69   DMPC H3S  HAL2   0.090000        1.0079           0
   21203 O1   69   DMPC C24  CTL2  -0.180000       12.0107           0
   21204 O1   69   DMPC H4R  HAL2   0.090000        1.0079           0
   21205 O1   69   DMPC H4S  HAL2   0.090000        1.0079           0
   21206 O1   69   DMPC C25  CTL2  -0.180000       12.0107           0
   21207 O1   69   DMPC H5R  HAL2   0.090000        1.0079           0
   21208 O1   69   DMPC H5S  HAL2   0.090000        1.0079           0
   21209 O1   69   DMPC C26  CTL2  -0.180000       12.0107           0
   21210 O1   69   DMPC H6R  HAL2   0.090000        1.0079           0
   21211 O1   69   DMPC H6S  HAL2   0.090000        1.0079           0
   21212 O1   69   DMPC C27  CTL2  -0.180000       12.0107           0
   21213 O1   69   DMPC H7R  HAL2   0.090000        1.0079           0
   21214 O1   69   DMPC H7S  HAL2   0.090000        1.0079           0
   21215 O1   69   DMPC C28  CTL2  -0.180000       12.0107           0
   21216 O1   69   DMPC H8R  HAL2   0.090000        1.0079           0
   21217 O1   69   DMPC H8S  HAL2   0.090000        1.0079           0
   21218 O1   69   DMPC C29  CTL2  -0.180000       12.0107           0
   21219 O1   69   DMPC H9R  HAL2   0.090000        1.0079           0
   21220 O1   69   DMPC H9S  HAL2   0.090000        1.0079           0
   21221 O1   69   DMPC C210 CTL2  -0.180000       12.0107           0
   21222 O1   69   DMPC H10R HAL2   0.090000        1.0079           0
   21223 O1   69   DMPC H10S HAL2   0.090000        1.0079           0
   21224 O1   69   DMPC C211 CTL2  -0.180000       12.0107           0
   21225 O1   69   DMPC H11R HAL2   0.090000        1.0079           0
   21226 O1   69   DMPC H11S HAL2   0.090000        1.0079           0
   21227 O1   69   DMPC C212 CTL2  -0.180000       12.0107           0
   21228 O1   69   DMPC H12R HAL2   0.090000        1.0079           0
   21229 O1   69   DMPC H12S HAL2   0.090000        1.0079           0
   21230 O1   69   DMPC C213 CTL2  -0.180000       12.0107           0
   21231 O1   69   DMPC H13R HAL2   0.090000        1.0079           0
   21232 O1   69   DMPC H13S HAL2   0.090000        1.0079           0
   21233 O1   69   DMPC C214 CTL3  -0.270000       12.0107           0
   21234 O1   69   DMPC H14R HAL3   0.090000        1.0079           0
   21235 O1   69   DMPC H14S HAL3   0.090000        1.0079           0
   21236 O1   69   DMPC H14T HAL3   0.090000        1.0079           0
   21237 O1   69   DMPC C33  CTL2  -0.180000       12.0107           0
   21238 O1   69   DMPC H3X  HAL2   0.090000        1.0079           0
   21239 O1   69   DMPC H3Y  HAL2   0.090000        1.0079           0
   21240 O1   69   DMPC C34  CTL2  -0.180000       12.0107           0
   21241 O1   69   DMPC H4X  HAL2   0.090000        1.0079           0
   21242 O1   69   DMPC H4Y  HAL2   0.090000        1.0079           0
   21243 O1   69   DMPC C35  CTL2  -0.180000       12.0107           0
   21244 O1   69   DMPC H5X  HAL2   0.090000        1.0079           0
   21245 O1   69   DMPC H5Y  HAL2   0.090000        1.0079           0
   21246 O1   69   DMPC C36  CTL2  -0.180000       12.0107           0
   21247 O1   69   DMPC H6X  HAL2   0.090000        1.0079           0
   21248 O1   69   DMPC H6Y  HAL2   0.090000        1.0079           0
   21249 O1   69   DMPC C37  CTL2  -0.180000       12.0107           0
   21250 O1   69   DMPC H7X  HAL2   0.090000        1.0079           0
   21251 O1   69   DMPC H7Y  HAL2   0.090000        1.0079           0
   21252 O1   69   DMPC C38  CTL2  -0.180000       12.0107           0
   21253 O1   69   DMPC H8X  HAL2   0.090000        1.0079           0
   21254 O1   69   DMPC H8Y  HAL2   0.090000        1.0079           0
   21255 O1   69   DMPC C39  CTL2  -0.180000       12.0107           0
   21256 O1   69   DMPC H9X  HAL2   0.090000        1.0079           0
   21257 O1   69   DMPC H9Y  HAL2   0.090000        1.0079           0
   21258 O1   69   DMPC C310 CTL2  -0.180000       12.0107           0
   21259 O1   69   DMPC H10X HAL2   0.090000        1.0079           0
   21260 O1   69   DMPC H10Y HAL2   0.090000        1.0079           0
   21261 O1   69   DMPC C311 CTL2  -0.180000       12.0107           0
   21262 O1   69   DMPC H11X HAL2   0.090000        1.0079           0
   21263 O1   69   DMPC H11Y HAL2   0.090000        1.0079           0
   21264 O1   69   DMPC C312 CTL2  -0.180000       12.0107           0
   21265 O1   69   DMPC H12X HAL2   0.090000        1.0079           0
   21266 O1   69   DMPC H12Y HAL2   0.090000        1.0079           0
   21267 O1   69   DMPC C313 CTL2  -0.180000       12.0107           0
   21268 O1   69   DMPC H13X HAL2   0.090000        1.0079           0
   21269 O1   69   DMPC H13Y HAL2   0.090000        1.0079           0
   21270 O1   69   DMPC C314 CTL3  -0.270000       12.0107           0
   21271 O1   69   DMPC H14X HAL3   0.090000        1.0079           0
   21272 O1   69   DMPC H14Y HAL3   0.090000        1.0079           0
   21273 O1   69   DMPC H14Z HAL3   0.090000        1.0079           0
   21274 O1   70   DMPC N    NTL   -0.600000       14.0067           0
   21275 O1   70   DMPC C13  CTL5  -0.350000       12.0107           0
   21276 O1   70   DMPC H13A HL     0.250000        1.0079           0
   21277 O1   70   DMPC H13B HL     0.250000        1.0079           0
   21278 O1   70   DMPC H13C HL     0.250000        1.0079           0
   21279 O1   70   DMPC C14  CTL5  -0.350000       12.0107           0
   21280 O1   70   DMPC H14A HL     0.250000        1.0079           0
   21281 O1   70   DMPC H14B HL     0.250000        1.0079           0
   21282 O1   70   DMPC H14C HL     0.250000        1.0079           0
   21283 O1   70   DMPC C15  CTL5  -0.350000       12.0107           0
   21284 O1   70   DMPC H15A HL     0.250000        1.0079           0
   21285 O1   70   DMPC H15B HL     0.250000        1.0079           0
   21286 O1   70   DMPC H15C HL     0.250000        1.0079           0
   21287 O1   70   DMPC C12  CTL2  -0.100000       12.0107           0
   21288 O1   70   DMPC H12A HL     0.250000        1.0079           0
   21289 O1   70   DMPC H12B HL     0.250000        1.0079           0
   21290 O1   70   DMPC C11  CTL2  -0.080000       12.0107           0
   21291 O1   70   DMPC H11A HAL2   0.090000        1.0079           0
   21292 O1   70   DMPC H11B HAL2   0.090000        1.0079           0
   21293 O1   70   DMPC P    PL     1.500000       30.9738           0
   21294 O1   70   DMPC O13  O2L   -0.780000       15.9994           0
   21295 O1   70   DMPC O14  O2L   -0.780000       15.9994           0
   21296 O1   70   DMPC O11  OSLP  -0.570000       15.9994           0
   21297 O1   70   DMPC O12  OSLP  -0.570000       15.9994           0
   21298 O1   70   DMPC C1   CTL2  -0.080000       12.0107           0
   21299 O1   70   DMPC HA   HAL2   0.090000        1.0079           0
   21300 O1   70   DMPC HB   HAL2   0.090000        1.0079           0
   21301 O1   70   DMPC C2   CTL1   0.170000       12.0107           0
   21302 O1   70   DMPC HS   HAL1   0.090000        1.0079           0
   21303 O1   70   DMPC O21  OSL   -0.490000       15.9994           0
   21304 O1   70   DMPC C21  CL     0.900000       12.0107           0
   21305 O1   70   DMPC O22  OBL   -0.630000       15.9994           0
   21306 O1   70   DMPC C22  CTL2  -0.220000       12.0107           0
   21307 O1   70   DMPC H2R  HAL2   0.090000        1.0079           0
   21308 O1   70   DMPC H2S  HAL2   0.090000        1.0079           0
   21309 O1   70   DMPC C3   CTL2   0.080000       12.0107           0
   21310 O1   70   DMPC HX   HAL2   0.090000        1.0079           0
   21311 O1   70   DMPC HY   HAL2   0.090000        1.0079           0
   21312 O1   70   DMPC O31  OSL   -0.490000       15.9994           0
   21313 O1   70   DMPC C31  CL     0.900000       12.0107           0
   21314 O1   70   DMPC O32  OBL   -0.630000       15.9994           0
   21315 O1   70   DMPC C32  CTL2  -0.220000       12.0107           0
   21316 O1   70   DMPC H2X  HAL2   0.090000        1.0079           0
   21317 O1   70   DMPC H2Y  HAL2   0.090000        1.0079           0
   21318 O1   70   DMPC C23  CTL2  -0.180000       12.0107           0
   21319 O1   70   DMPC H3R  HAL2   0.090000        1.0079           0
   21320 O1   70   DMPC H3S  HAL2   0.090000        1.0079           0
   21321 O1   70   DMPC C24  CTL2  -0.180000       12.0107           0
   21322 O1   70   DMPC H4R  HAL2   0.090000        1.0079           0
   21323 O1   70   DMPC H4S  HAL2   0.090000        1.0079           0
   21324 O1   70   DMPC C25  CTL2  -0.180000       12.0107           0
   21325 O1   70   DMPC H5R  HAL2   0.090000        1.0079           0
   21326 O1   70   DMPC H5S  HAL2   0.090000        1.0079           0
   21327 O1   70   DMPC C26  CTL2  -0.180000       12.0107           0
   21328 O1   70   DMPC H6R  HAL2   0.090000        1.0079           0
   21329 O1   70   DMPC H6S  HAL2   0.090000        1.0079           0
   21330 O1   70   DMPC C27  CTL2  -0.180000       12.0107           0
   21331 O1   70   DMPC H7R  HAL2   0.090000        1.0079           0
   21332 O1   70   DMPC H7S  HAL2   0.090000        1.0079           0
   21333 O1   70   DMPC C28  CTL2  -0.180000       12.0107           0
   21334 O1   70   DMPC H8R  HAL2   0.090000        1.0079           0
   21335 O1   70   DMPC H8S  HAL2   0.090000        1.0079           0
   21336 O1   70   DMPC C29  CTL2  -0.180000       12.0107           0
   21337 O1   70   DMPC H9R  HAL2   0.090000        1.0079           0
   21338 O1   70   DMPC H9S  HAL2   0.090000        1.0079           0
   21339 O1   70   DMPC C210 CTL2  -0.180000       12.0107           0
   21340 O1   70   DMPC H10R HAL2   0.090000        1.0079           0
   21341 O1   70   DMPC H10S HAL2   0.090000        1.0079           0
   21342 O1   70   DMPC C211 CTL2  -0.180000       12.0107           0
   21343 O1   70   DMPC H11R HAL2   0.090000        1.0079           0
   21344 O1   70   DMPC H11S HAL2   0.090000        1.0079           0
   21345 O1   70   DMPC C212 CTL2  -0.180000       12.0107           0
   21346 O1   70   DMPC H12R HAL2   0.090000        1.0079           0
   21347 O1   70   DMPC H12S HAL2   0.090000        1.0079           0
   21348 O1   70   DMPC C213 CTL2  -0.180000       12.0107           0
   21349 O1   70   DMPC H13R HAL2   0.090000        1.0079           0
   21350 O1   70   DMPC H13S HAL2   0.090000        1.0079           0
   21351 O1   70   DMPC C214 CTL3  -0.270000       12.0107           0
   21352 O1   70   DMPC H14R HAL3   0.090000        1.0079           0
   21353 O1   70   DMPC H14S HAL3   0.090000        1.0079           0
   21354 O1   70   DMPC H14T HAL3   0.090000        1.0079           0
   21355 O1   70   DMPC C33  CTL2  -0.180000       12.0107           0
   21356 O1   70   DMPC H3X  HAL2   0.090000        1.0079           0
   21357 O1   70   DMPC H3Y  HAL2   0.090000        1.0079           0
   21358 O1   70   DMPC C34  CTL2  -0.180000       12.0107           0
   21359 O1   70   DMPC H4X  HAL2   0.090000        1.0079           0
   21360 O1   70   DMPC H4Y  HAL2   0.090000        1.0079           0
   21361 O1   70   DMPC C35  CTL2  -0.180000       12.0107           0
   21362 O1   70   DMPC H5X  HAL2   0.090000        1.0079           0
   21363 O1   70   DMPC H5Y  HAL2   0.090000        1.0079           0
   21364 O1   70   DMPC C36  CTL2  -0.180000       12.0107           0
   21365 O1   70   DMPC H6X  HAL2   0.090000        1.0079           0
   21366 O1   70   DMPC H6Y  HAL2   0.090000        1.0079           0
   21367 O1   70   DMPC C37  CTL2  -0.180000       12.0107           0
   21368 O1   70   DMPC H7X  HAL2   0.090000        1.0079           0
   21369 O1   70   DMPC H7Y  HAL2   0.090000        1.0079           0
   21370 O1   70   DMPC C38  CTL2  -0.180000       12.0107           0
   21371 O1   70   DMPC H8X  HAL2   0.090000        1.0079           0
   21372 O1   70   DMPC H8Y  HAL2   0.090000        1.0079           0
   21373 O1   70   DMPC C39  CTL2  -0.180000       12.0107           0
   21374 O1   70   DMPC H9X  HAL2   0.090000        1.0079           0
   21375 O1   70   DMPC H9Y  HAL2   0.090000        1.0079           0
   21376 O1   70   DMPC C310 CTL2  -0.180000       12.0107           0
   21377 O1   70   DMPC H10X HAL2   0.090000        1.0079           0
   21378 O1   70   DMPC H10Y HAL2   0.090000        1.0079           0
   21379 O1   70   DMPC C311 CTL2  -0.180000       12.0107           0
   21380 O1   70   DMPC H11X HAL2   0.090000        1.0079           0
   21381 O1   70   DMPC H11Y HAL2   0.090000        1.0079           0
   21382 O1   70   DMPC C312 CTL2  -0.180000       12.0107           0
   21383 O1   70   DMPC H12X HAL2   0.090000        1.0079           0
   21384 O1   70   DMPC H12Y HAL2   0.090000        1.0079           0
   21385 O1   70   DMPC C313 CTL2  -0.180000       12.0107           0
   21386 O1   70   DMPC H13X HAL2   0.090000        1.0079           0
   21387 O1   70   DMPC H13Y HAL2   0.090000        1.0079           0
   21388 O1   70   DMPC C314 CTL3  -0.270000       12.0107           0
   21389 O1   70   DMPC H14X HAL3   0.090000        1.0079           0
   21390 O1   70   DMPC H14Y HAL3   0.090000        1.0079           0
   21391 O1   70   DMPC H14Z HAL3   0.090000        1.0079           0
   21392 O1   71   DMPC N    NTL   -0.600000       14.0067           0
   21393 O1   71   DMPC C13  CTL5  -0.350000       12.0107           0
   21394 O1   71   DMPC H13A HL     0.250000        1.0079           0
   21395 O1   71   DMPC H13B HL     0.250000        1.0079           0
   21396 O1   71   DMPC H13C HL     0.250000        1.0079           0
   21397 O1   71   DMPC C14  CTL5  -0.350000       12.0107           0
   21398 O1   71   DMPC H14A HL     0.250000        1.0079           0
   21399 O1   71   DMPC H14B HL     0.250000        1.0079           0
   21400 O1   71   DMPC H14C HL     0.250000        1.0079           0
   21401 O1   71   DMPC C15  CTL5  -0.350000       12.0107           0
   21402 O1   71   DMPC H15A HL     0.250000        1.0079           0
   21403 O1   71   DMPC H15B HL     0.250000        1.0079           0
   21404 O1   71   DMPC H15C HL     0.250000        1.0079           0
   21405 O1   71   DMPC C12  CTL2  -0.100000       12.0107           0
   21406 O1   71   DMPC H12A HL     0.250000        1.0079           0
   21407 O1   71   DMPC H12B HL     0.250000        1.0079           0
   21408 O1   71   DMPC C11  CTL2  -0.080000       12.0107           0
   21409 O1   71   DMPC H11A HAL2   0.090000        1.0079           0
   21410 O1   71   DMPC H11B HAL2   0.090000        1.0079           0
   21411 O1   71   DMPC P    PL     1.500000       30.9738           0
   21412 O1   71   DMPC O13  O2L   -0.780000       15.9994           0
   21413 O1   71   DMPC O14  O2L   -0.780000       15.9994           0
   21414 O1   71   DMPC O11  OSLP  -0.570000       15.9994           0
   21415 O1   71   DMPC O12  OSLP  -0.570000       15.9994           0
   21416 O1   71   DMPC C1   CTL2  -0.080000       12.0107           0
   21417 O1   71   DMPC HA   HAL2   0.090000        1.0079           0
   21418 O1   71   DMPC HB   HAL2   0.090000        1.0079           0
   21419 O1   71   DMPC C2   CTL1   0.170000       12.0107           0
   21420 O1   71   DMPC HS   HAL1   0.090000        1.0079           0
   21421 O1   71   DMPC O21  OSL   -0.490000       15.9994           0
   21422 O1   71   DMPC C21  CL     0.900000       12.0107           0
   21423 O1   71   DMPC O22  OBL   -0.630000       15.9994           0
   21424 O1   71   DMPC C22  CTL2  -0.220000       12.0107           0
   21425 O1   71   DMPC H2R  HAL2   0.090000        1.0079           0
   21426 O1   71   DMPC H2S  HAL2   0.090000        1.0079           0
   21427 O1   71   DMPC C3   CTL2   0.080000       12.0107           0
   21428 O1   71   DMPC HX   HAL2   0.090000        1.0079           0
   21429 O1   71   DMPC HY   HAL2   0.090000        1.0079           0
   21430 O1   71   DMPC O31  OSL   -0.490000       15.9994           0
   21431 O1   71   DMPC C31  CL     0.900000       12.0107           0
   21432 O1   71   DMPC O32  OBL   -0.630000       15.9994           0
   21433 O1   71   DMPC C32  CTL2  -0.220000       12.0107           0
   21434 O1   71   DMPC H2X  HAL2   0.090000        1.0079           0
   21435 O1   71   DMPC H2Y  HAL2   0.090000        1.0079           0
   21436 O1   71   DMPC C23  CTL2  -0.180000       12.0107           0
   21437 O1   71   DMPC H3R  HAL2   0.090000        1.0079           0
   21438 O1   71   DMPC H3S  HAL2   0.090000        1.0079           0
   21439 O1   71   DMPC C24  CTL2  -0.180000       12.0107           0
   21440 O1   71   DMPC H4R  HAL2   0.090000        1.0079           0
   21441 O1   71   DMPC H4S  HAL2   0.090000        1.0079           0
   21442 O1   71   DMPC C25  CTL2  -0.180000       12.0107           0
   21443 O1   71   DMPC H5R  HAL2   0.090000        1.0079           0
   21444 O1   71   DMPC H5S  HAL2   0.090000        1.0079           0
   21445 O1   71   DMPC C26  CTL2  -0.180000       12.0107           0
   21446 O1   71   DMPC H6R  HAL2   0.090000        1.0079           0
   21447 O1   71   DMPC H6S  HAL2   0.090000        1.0079           0
   21448 O1   71   DMPC C27  CTL2  -0.180000       12.0107           0
   21449 O1   71   DMPC H7R  HAL2   0.090000        1.0079           0
   21450 O1   71   DMPC H7S  HAL2   0.090000        1.0079           0
   21451 O1   71   DMPC C28  CTL2  -0.180000       12.0107           0
   21452 O1   71   DMPC H8R  HAL2   0.090000        1.0079           0
   21453 O1   71   DMPC H8S  HAL2   0.090000        1.0079           0
   21454 O1   71   DMPC C29  CTL2  -0.180000       12.0107           0
   21455 O1   71   DMPC H9R  HAL2   0.090000        1.0079           0
   21456 O1   71   DMPC H9S  HAL2   0.090000        1.0079           0
   21457 O1   71   DMPC C210 CTL2  -0.180000       12.0107           0
   21458 O1   71   DMPC H10R HAL2   0.090000        1.0079           0
   21459 O1   71   DMPC H10S HAL2   0.090000        1.0079           0
   21460 O1   71   DMPC C211 CTL2  -0.180000       12.0107           0
   21461 O1   71   DMPC H11R HAL2   0.090000        1.0079           0
   21462 O1   71   DMPC H11S HAL2   0.090000        1.0079           0
   21463 O1   71   DMPC C212 CTL2  -0.180000       12.0107           0
   21464 O1   71   DMPC H12R HAL2   0.090000        1.0079           0
   21465 O1   71   DMPC H12S HAL2   0.090000        1.0079           0
   21466 O1   71   DMPC C213 CTL2  -0.180000       12.0107           0
   21467 O1   71   DMPC H13R HAL2   0.090000        1.0079           0
   21468 O1   71   DMPC H13S HAL2   0.090000        1.0079           0
   21469 O1   71   DMPC C214 CTL3  -0.270000       12.0107           0
   21470 O1   71   DMPC H14R HAL3   0.090000        1.0079           0
   21471 O1   71   DMPC H14S HAL3   0.090000        1.0079           0
   21472 O1   71   DMPC H14T HAL3   0.090000        1.0079           0
   21473 O1   71   DMPC C33  CTL2  -0.180000       12.0107           0
   21474 O1   71   DMPC H3X  HAL2   0.090000        1.0079           0
   21475 O1   71   DMPC H3Y  HAL2   0.090000        1.0079           0
   21476 O1   71   DMPC C34  CTL2  -0.180000       12.0107           0
   21477 O1   71   DMPC H4X  HAL2   0.090000        1.0079           0
   21478 O1   71   DMPC H4Y  HAL2   0.090000        1.0079           0
   21479 O1   71   DMPC C35  CTL2  -0.180000       12.0107           0
   21480 O1   71   DMPC H5X  HAL2   0.090000        1.0079           0
   21481 O1   71   DMPC H5Y  HAL2   0.090000        1.0079           0
   21482 O1   71   DMPC C36  CTL2  -0.180000       12.0107           0
   21483 O1   71   DMPC H6X  HAL2   0.090000        1.0079           0
   21484 O1   71   DMPC H6Y  HAL2   0.090000        1.0079           0
   21485 O1   71   DMPC C37  CTL2  -0.180000       12.0107           0
   21486 O1   71   DMPC H7X  HAL2   0.090000        1.0079           0
   21487 O1   71   DMPC H7Y  HAL2   0.090000        1.0079           0
   21488 O1   71   DMPC C38  CTL2  -0.180000       12.0107           0
   21489 O1   71   DMPC H8X  HAL2   0.090000        1.0079           0
   21490 O1   71   DMPC H8Y  HAL2   0.090000        1.0079           0
   21491 O1   71   DMPC C39  CTL2  -0.180000       12.0107           0
   21492 O1   71   DMPC H9X  HAL2   0.090000        1.0079           0
   21493 O1   71   DMPC H9Y  HAL2   0.090000        1.0079           0
   21494 O1   71   DMPC C310 CTL2  -0.180000       12.0107           0
   21495 O1   71   DMPC H10X HAL2   0.090000        1.0079           0
   21496 O1   71   DMPC H10Y HAL2   0.090000        1.0079           0
   21497 O1   71   DMPC C311 CTL2  -0.180000       12.0107           0
   21498 O1   71   DMPC H11X HAL2   0.090000        1.0079           0
   21499 O1   71   DMPC H11Y HAL2   0.090000        1.0079           0
   21500 O1   71   DMPC C312 CTL2  -0.180000       12.0107           0
   21501 O1   71   DMPC H12X HAL2   0.090000        1.0079           0
   21502 O1   71   DMPC H12Y HAL2   0.090000        1.0079           0
   21503 O1   71   DMPC C313 CTL2  -0.180000       12.0107           0
   21504 O1   71   DMPC H13X HAL2   0.090000        1.0079           0
   21505 O1   71   DMPC H13Y HAL2   0.090000        1.0079           0
   21506 O1   71   DMPC C314 CTL3  -0.270000       12.0107           0
   21507 O1   71   DMPC H14X HAL3   0.090000        1.0079           0
   21508 O1   71   DMPC H14Y HAL3   0.090000        1.0079           0
   21509 O1   71   DMPC H14Z HAL3   0.090000        1.0079           0
   21510 O1   72   DMPC N    NTL   -0.600000       14.0067           0
   21511 O1   72   DMPC C13  CTL5  -0.350000       12.0107           0
   21512 O1   72   DMPC H13A HL     0.250000        1.0079           0
   21513 O1   72   DMPC H13B HL     0.250000        1.0079           0
   21514 O1   72   DMPC H13C HL     0.250000        1.0079           0
   21515 O1   72   DMPC C14  CTL5  -0.350000       12.0107           0
   21516 O1   72   DMPC H14A HL     0.250000        1.0079           0
   21517 O1   72   DMPC H14B HL     0.250000        1.0079           0
   21518 O1   72   DMPC H14C HL     0.250000        1.0079           0
   21519 O1   72   DMPC C15  CTL5  -0.350000       12.0107           0
   21520 O1   72   DMPC H15A HL     0.250000        1.0079           0
   21521 O1   72   DMPC H15B HL     0.250000        1.0079           0
   21522 O1   72   DMPC H15C HL     0.250000        1.0079           0
   21523 O1   72   DMPC C12  CTL2  -0.100000       12.0107           0
   21524 O1   72   DMPC H12A HL     0.250000        1.0079           0
   21525 O1   72   DMPC H12B HL     0.250000        1.0079           0
   21526 O1   72   DMPC C11  CTL2  -0.080000       12.0107           0
   21527 O1   72   DMPC H11A HAL2   0.090000        1.0079           0
   21528 O1   72   DMPC H11B HAL2   0.090000        1.0079           0
   21529 O1   72   DMPC P    PL     1.500000       30.9738           0
   21530 O1   72   DMPC O13  O2L   -0.780000       15.9994           0
   21531 O1   72   DMPC O14  O2L   -0.780000       15.9994           0
   21532 O1   72   DMPC O11  OSLP  -0.570000       15.9994           0
   21533 O1   72   DMPC O12  OSLP  -0.570000       15.9994           0
   21534 O1   72   DMPC C1   CTL2  -0.080000       12.0107           0
   21535 O1   72   DMPC HA   HAL2   0.090000        1.0079           0
   21536 O1   72   DMPC HB   HAL2   0.090000        1.0079           0
   21537 O1   72   DMPC C2   CTL1   0.170000       12.0107           0
   21538 O1   72   DMPC HS   HAL1   0.090000        1.0079           0
   21539 O1   72   DMPC O21  OSL   -0.490000       15.9994           0
   21540 O1   72   DMPC C21  CL     0.900000       12.0107           0
   21541 O1   72   DMPC O22  OBL   -0.630000       15.9994           0
   21542 O1   72   DMPC C22  CTL2  -0.220000       12.0107           0
   21543 O1   72   DMPC H2R  HAL2   0.090000        1.0079           0
   21544 O1   72   DMPC H2S  HAL2   0.090000        1.0079           0
   21545 O1   72   DMPC C3   CTL2   0.080000       12.0107           0
   21546 O1   72   DMPC HX   HAL2   0.090000        1.0079           0
   21547 O1   72   DMPC HY   HAL2   0.090000        1.0079           0
   21548 O1   72   DMPC O31  OSL   -0.490000       15.9994           0
   21549 O1   72   DMPC C31  CL     0.900000       12.0107           0
   21550 O1   72   DMPC O32  OBL   -0.630000       15.9994           0
   21551 O1   72   DMPC C32  CTL2  -0.220000       12.0107           0
   21552 O1   72   DMPC H2X  HAL2   0.090000        1.0079           0
   21553 O1   72   DMPC H2Y  HAL2   0.090000        1.0079           0
   21554 O1   72   DMPC C23  CTL2  -0.180000       12.0107           0
   21555 O1   72   DMPC H3R  HAL2   0.090000        1.0079           0
   21556 O1   72   DMPC H3S  HAL2   0.090000        1.0079           0
   21557 O1   72   DMPC C24  CTL2  -0.180000       12.0107           0
   21558 O1   72   DMPC H4R  HAL2   0.090000        1.0079           0
   21559 O1   72   DMPC H4S  HAL2   0.090000        1.0079           0
   21560 O1   72   DMPC C25  CTL2  -0.180000       12.0107           0
   21561 O1   72   DMPC H5R  HAL2   0.090000        1.0079           0
   21562 O1   72   DMPC H5S  HAL2   0.090000        1.0079           0
   21563 O1   72   DMPC C26  CTL2  -0.180000       12.0107           0
   21564 O1   72   DMPC H6R  HAL2   0.090000        1.0079           0
   21565 O1   72   DMPC H6S  HAL2   0.090000        1.0079           0
   21566 O1   72   DMPC C27  CTL2  -0.180000       12.0107           0
   21567 O1   72   DMPC H7R  HAL2   0.090000        1.0079           0
   21568 O1   72   DMPC H7S  HAL2   0.090000        1.0079           0
   21569 O1   72   DMPC C28  CTL2  -0.180000       12.0107           0
   21570 O1   72   DMPC H8R  HAL2   0.090000        1.0079           0
   21571 O1   72   DMPC H8S  HAL2   0.090000        1.0079           0
   21572 O1   72   DMPC C29  CTL2  -0.180000       12.0107           0
   21573 O1   72   DMPC H9R  HAL2   0.090000        1.0079           0
   21574 O1   72   DMPC H9S  HAL2   0.090000        1.0079           0
   21575 O1   72   DMPC C210 CTL2  -0.180000       12.0107           0
   21576 O1   72   DMPC H10R HAL2   0.090000        1.0079           0
   21577 O1   72   DMPC H10S HAL2   0.090000        1.0079           0
   21578 O1   72   DMPC C211 CTL2  -0.180000       12.0107           0
   21579 O1   72   DMPC H11R HAL2   0.090000        1.0079           0
   21580 O1   72   DMPC H11S HAL2   0.090000        1.0079           0
   21581 O1   72   DMPC C212 CTL2  -0.180000       12.0107           0
   21582 O1   72   DMPC H12R HAL2   0.090000        1.0079           0
   21583 O1   72   DMPC H12S HAL2   0.090000        1.0079           0
   21584 O1   72   DMPC C213 CTL2  -0.180000       12.0107           0
   21585 O1   72   DMPC H13R HAL2   0.090000        1.0079           0
   21586 O1   72   DMPC H13S HAL2   0.090000        1.0079           0
   21587 O1   72   DMPC C214 CTL3  -0.270000       12.0107           0
   21588 O1   72   DMPC H14R HAL3   0.090000        1.0079           0
   21589 O1   72   DMPC H14S HAL3   0.090000        1.0079           0
   21590 O1   72   DMPC H14T HAL3   0.090000        1.0079           0
   21591 O1   72   DMPC C33  CTL2  -0.180000       12.0107           0
   21592 O1   72   DMPC H3X  HAL2   0.090000        1.0079           0
   21593 O1   72   DMPC H3Y  HAL2   0.090000        1.0079           0
   21594 O1   72   DMPC C34  CTL2  -0.180000       12.0107           0
   21595 O1   72   DMPC H4X  HAL2   0.090000        1.0079           0
   21596 O1   72   DMPC H4Y  HAL2   0.090000        1.0079           0
   21597 O1   72   DMPC C35  CTL2  -0.180000       12.0107           0
   21598 O1   72   DMPC H5X  HAL2   0.090000        1.0079           0
   21599 O1   72   DMPC H5Y  HAL2   0.090000        1.0079           0
   21600 O1   72   DMPC C36  CTL2  -0.180000       12.0107           0
   21601 O1   72   DMPC H6X  HAL2   0.090000        1.0079           0
   21602 O1   72   DMPC H6Y  HAL2   0.090000        1.0079           0
   21603 O1   72   DMPC C37  CTL2  -0.180000       12.0107           0
   21604 O1   72   DMPC H7X  HAL2   0.090000        1.0079           0
   21605 O1   72   DMPC H7Y  HAL2   0.090000        1.0079           0
   21606 O1   72   DMPC C38  CTL2  -0.180000       12.0107           0
   21607 O1   72   DMPC H8X  HAL2   0.090000        1.0079           0
   21608 O1   72   DMPC H8Y  HAL2   0.090000        1.0079           0
   21609 O1   72   DMPC C39  CTL2  -0.180000       12.0107           0
   21610 O1   72   DMPC H9X  HAL2   0.090000        1.0079           0
   21611 O1   72   DMPC H9Y  HAL2   0.090000        1.0079           0
   21612 O1   72   DMPC C310 CTL2  -0.180000       12.0107           0
   21613 O1   72   DMPC H10X HAL2   0.090000        1.0079           0
   21614 O1   72   DMPC H10Y HAL2   0.090000        1.0079           0
   21615 O1   72   DMPC C311 CTL2  -0.180000       12.0107           0
   21616 O1   72   DMPC H11X HAL2   0.090000        1.0079           0
   21617 O1   72   DMPC H11Y HAL2   0.090000        1.0079           0
   21618 O1   72   DMPC C312 CTL2  -0.180000       12.0107           0
   21619 O1   72   DMPC H12X HAL2   0.090000        1.0079           0
   21620 O1   72   DMPC H12Y HAL2   0.090000        1.0079           0
   21621 O1   72   DMPC C313 CTL2  -0.180000       12.0107           0
   21622 O1   72   DMPC H13X HAL2   0.090000        1.0079           0
   21623 O1   72   DMPC H13Y HAL2   0.090000        1.0079           0
   21624 O1   72   DMPC C314 CTL3  -0.270000       12.0107           0
   21625 O1   72   DMPC H14X HAL3   0.090000        1.0079           0
   21626 O1   72   DMPC H14Y HAL3   0.090000        1.0079           0
   21627 O1   72   DMPC H14Z HAL3   0.090000        1.0079           0
   21628 O1   73   DMPC N    NTL   -0.600000       14.0067           0
   21629 O1   73   DMPC C13  CTL5  -0.350000       12.0107           0
   21630 O1   73   DMPC H13A HL     0.250000        1.0079           0
   21631 O1   73   DMPC H13B HL     0.250000        1.0079           0
   21632 O1   73   DMPC H13C HL     0.250000        1.0079           0
   21633 O1   73   DMPC C14  CTL5  -0.350000       12.0107           0
   21634 O1   73   DMPC H14A HL     0.250000        1.0079           0
   21635 O1   73   DMPC H14B HL     0.250000        1.0079           0
   21636 O1   73   DMPC H14C HL     0.250000        1.0079           0
   21637 O1   73   DMPC C15  CTL5  -0.350000       12.0107           0
   21638 O1   73   DMPC H15A HL     0.250000        1.0079           0
   21639 O1   73   DMPC H15B HL     0.250000        1.0079           0
   21640 O1   73   DMPC H15C HL     0.250000        1.0079           0
   21641 O1   73   DMPC C12  CTL2  -0.100000       12.0107           0
   21642 O1   73   DMPC H12A HL     0.250000        1.0079           0
   21643 O1   73   DMPC H12B HL     0.250000        1.0079           0
   21644 O1   73   DMPC C11  CTL2  -0.080000       12.0107           0
   21645 O1   73   DMPC H11A HAL2   0.090000        1.0079           0
   21646 O1   73   DMPC H11B HAL2   0.090000        1.0079           0
   21647 O1   73   DMPC P    PL     1.500000       30.9738           0
   21648 O1   73   DMPC O13  O2L   -0.780000       15.9994           0
   21649 O1   73   DMPC O14  O2L   -0.780000       15.9994           0
   21650 O1   73   DMPC O11  OSLP  -0.570000       15.9994           0
   21651 O1   73   DMPC O12  OSLP  -0.570000       15.9994           0
   21652 O1   73   DMPC C1   CTL2  -0.080000       12.0107           0
   21653 O1   73   DMPC HA   HAL2   0.090000        1.0079           0
   21654 O1   73   DMPC HB   HAL2   0.090000        1.0079           0
   21655 O1   73   DMPC C2   CTL1   0.170000       12.0107           0
   21656 O1   73   DMPC HS   HAL1   0.090000        1.0079           0
   21657 O1   73   DMPC O21  OSL   -0.490000       15.9994           0
   21658 O1   73   DMPC C21  CL     0.900000       12.0107           0
   21659 O1   73   DMPC O22  OBL   -0.630000       15.9994           0
   21660 O1   73   DMPC C22  CTL2  -0.220000       12.0107           0
   21661 O1   73   DMPC H2R  HAL2   0.090000        1.0079           0
   21662 O1   73   DMPC H2S  HAL2   0.090000        1.0079           0
   21663 O1   73   DMPC C3   CTL2   0.080000       12.0107           0
   21664 O1   73   DMPC HX   HAL2   0.090000        1.0079           0
   21665 O1   73   DMPC HY   HAL2   0.090000        1.0079           0
   21666 O1   73   DMPC O31  OSL   -0.490000       15.9994           0
   21667 O1   73   DMPC C31  CL     0.900000       12.0107           0
   21668 O1   73   DMPC O32  OBL   -0.630000       15.9994           0
   21669 O1   73   DMPC C32  CTL2  -0.220000       12.0107           0
   21670 O1   73   DMPC H2X  HAL2   0.090000        1.0079           0
   21671 O1   73   DMPC H2Y  HAL2   0.090000        1.0079           0
   21672 O1   73   DMPC C23  CTL2  -0.180000       12.0107           0
   21673 O1   73   DMPC H3R  HAL2   0.090000        1.0079           0
   21674 O1   73   DMPC H3S  HAL2   0.090000        1.0079           0
   21675 O1   73   DMPC C24  CTL2  -0.180000       12.0107           0
   21676 O1   73   DMPC H4R  HAL2   0.090000        1.0079           0
   21677 O1   73   DMPC H4S  HAL2   0.090000        1.0079           0
   21678 O1   73   DMPC C25  CTL2  -0.180000       12.0107           0
   21679 O1   73   DMPC H5R  HAL2   0.090000        1.0079           0
   21680 O1   73   DMPC H5S  HAL2   0.090000        1.0079           0
   21681 O1   73   DMPC C26  CTL2  -0.180000       12.0107           0
   21682 O1   73   DMPC H6R  HAL2   0.090000        1.0079           0
   21683 O1   73   DMPC H6S  HAL2   0.090000        1.0079           0
   21684 O1   73   DMPC C27  CTL2  -0.180000       12.0107           0
   21685 O1   73   DMPC H7R  HAL2   0.090000        1.0079           0
   21686 O1   73   DMPC H7S  HAL2   0.090000        1.0079           0
   21687 O1   73   DMPC C28  CTL2  -0.180000       12.0107           0
   21688 O1   73   DMPC H8R  HAL2   0.090000        1.0079           0
   21689 O1   73   DMPC H8S  HAL2   0.090000        1.0079           0
   21690 O1   73   DMPC C29  CTL2  -0.180000       12.0107           0
   21691 O1   73   DMPC H9R  HAL2   0.090000        1.0079           0
   21692 O1   73   DMPC H9S  HAL2   0.090000        1.0079           0
   21693 O1   73   DMPC C210 CTL2  -0.180000       12.0107           0
   21694 O1   73   DMPC H10R HAL2   0.090000        1.0079           0
   21695 O1   73   DMPC H10S HAL2   0.090000        1.0079           0
   21696 O1   73   DMPC C211 CTL2  -0.180000       12.0107           0
   21697 O1   73   DMPC H11R HAL2   0.090000        1.0079           0
   21698 O1   73   DMPC H11S HAL2   0.090000        1.0079           0
   21699 O1   73   DMPC C212 CTL2  -0.180000       12.0107           0
   21700 O1   73   DMPC H12R HAL2   0.090000        1.0079           0
   21701 O1   73   DMPC H12S HAL2   0.090000        1.0079           0
   21702 O1   73   DMPC C213 CTL2  -0.180000       12.0107           0
   21703 O1   73   DMPC H13R HAL2   0.090000        1.0079           0
   21704 O1   73   DMPC H13S HAL2   0.090000        1.0079           0
   21705 O1   73   DMPC C214 CTL3  -0.270000       12.0107           0
   21706 O1   73   DMPC H14R HAL3   0.090000        1.0079           0
   21707 O1   73   DMPC H14S HAL3   0.090000        1.0079           0
   21708 O1   73   DMPC H14T HAL3   0.090000        1.0079           0
   21709 O1   73   DMPC C33  CTL2  -0.180000       12.0107           0
   21710 O1   73   DMPC H3X  HAL2   0.090000        1.0079           0
   21711 O1   73   DMPC H3Y  HAL2   0.090000        1.0079           0
   21712 O1   73   DMPC C34  CTL2  -0.180000       12.0107           0
   21713 O1   73   DMPC H4X  HAL2   0.090000        1.0079           0
   21714 O1   73   DMPC H4Y  HAL2   0.090000        1.0079           0
   21715 O1   73   DMPC C35  CTL2  -0.180000       12.0107           0
   21716 O1   73   DMPC H5X  HAL2   0.090000        1.0079           0
   21717 O1   73   DMPC H5Y  HAL2   0.090000        1.0079           0
   21718 O1   73   DMPC C36  CTL2  -0.180000       12.0107           0
   21719 O1   73   DMPC H6X  HAL2   0.090000        1.0079           0
   21720 O1   73   DMPC H6Y  HAL2   0.090000        1.0079           0
   21721 O1   73   DMPC C37  CTL2  -0.180000       12.0107           0
   21722 O1   73   DMPC H7X  HAL2   0.090000        1.0079           0
   21723 O1   73   DMPC H7Y  HAL2   0.090000        1.0079           0
   21724 O1   73   DMPC C38  CTL2  -0.180000       12.0107           0
   21725 O1   73   DMPC H8X  HAL2   0.090000        1.0079           0
   21726 O1   73   DMPC H8Y  HAL2   0.090000        1.0079           0
   21727 O1   73   DMPC C39  CTL2  -0.180000       12.0107           0
   21728 O1   73   DMPC H9X  HAL2   0.090000        1.0079           0
   21729 O1   73   DMPC H9Y  HAL2   0.090000        1.0079           0
   21730 O1   73   DMPC C310 CTL2  -0.180000       12.0107           0
   21731 O1   73   DMPC H10X HAL2   0.090000        1.0079           0
   21732 O1   73   DMPC H10Y HAL2   0.090000        1.0079           0
   21733 O1   73   DMPC C311 CTL2  -0.180000       12.0107           0
   21734 O1   73   DMPC H11X HAL2   0.090000        1.0079           0
   21735 O1   73   DMPC H11Y HAL2   0.090000        1.0079           0
   21736 O1   73   DMPC C312 CTL2  -0.180000       12.0107           0
   21737 O1   73   DMPC H12X HAL2   0.090000        1.0079           0
   21738 O1   73   DMPC H12Y HAL2   0.090000        1.0079           0
   21739 O1   73   DMPC C313 CTL2  -0.180000       12.0107           0
   21740 O1   73   DMPC H13X HAL2   0.090000        1.0079           0
   21741 O1   73   DMPC H13Y HAL2   0.090000        1.0079           0
   21742 O1   73   DMPC C314 CTL3  -0.270000       12.0107           0
   21743 O1   73   DMPC H14X HAL3   0.090000        1.0079           0
   21744 O1   73   DMPC H14Y HAL3   0.090000        1.0079           0
   21745 O1   73   DMPC H14Z HAL3   0.090000        1.0079           0
   21746 O1   74   DMPC N    NTL   -0.600000       14.0067           0
   21747 O1   74   DMPC C13  CTL5  -0.350000       12.0107           0
   21748 O1   74   DMPC H13A HL     0.250000        1.0079           0
   21749 O1   74   DMPC H13B HL     0.250000        1.0079           0
   21750 O1   74   DMPC H13C HL     0.250000        1.0079           0
   21751 O1   74   DMPC C14  CTL5  -0.350000       12.0107           0
   21752 O1   74   DMPC H14A HL     0.250000        1.0079           0
   21753 O1   74   DMPC H14B HL     0.250000        1.0079           0
   21754 O1   74   DMPC H14C HL     0.250000        1.0079           0
   21755 O1   74   DMPC C15  CTL5  -0.350000       12.0107           0
   21756 O1   74   DMPC H15A HL     0.250000        1.0079           0
   21757 O1   74   DMPC H15B HL     0.250000        1.0079           0
   21758 O1   74   DMPC H15C HL     0.250000        1.0079           0
   21759 O1   74   DMPC C12  CTL2  -0.100000       12.0107           0
   21760 O1   74   DMPC H12A HL     0.250000        1.0079           0
   21761 O1   74   DMPC H12B HL     0.250000        1.0079           0
   21762 O1   74   DMPC C11  CTL2  -0.080000       12.0107           0
   21763 O1   74   DMPC H11A HAL2   0.090000        1.0079           0
   21764 O1   74   DMPC H11B HAL2   0.090000        1.0079           0
   21765 O1   74   DMPC P    PL     1.500000       30.9738           0
   21766 O1   74   DMPC O13  O2L   -0.780000       15.9994           0
   21767 O1   74   DMPC O14  O2L   -0.780000       15.9994           0
   21768 O1   74   DMPC O11  OSLP  -0.570000       15.9994           0
   21769 O1   74   DMPC O12  OSLP  -0.570000       15.9994           0
   21770 O1   74   DMPC C1   CTL2  -0.080000       12.0107           0
   21771 O1   74   DMPC HA   HAL2   0.090000        1.0079           0
   21772 O1   74   DMPC HB   HAL2   0.090000        1.0079           0
   21773 O1   74   DMPC C2   CTL1   0.170000       12.0107           0
   21774 O1   74   DMPC HS   HAL1   0.090000        1.0079           0
   21775 O1   74   DMPC O21  OSL   -0.490000       15.9994           0
   21776 O1   74   DMPC C21  CL     0.900000       12.0107           0
   21777 O1   74   DMPC O22  OBL   -0.630000       15.9994           0
   21778 O1   74   DMPC C22  CTL2  -0.220000       12.0107           0
   21779 O1   74   DMPC H2R  HAL2   0.090000        1.0079           0
   21780 O1   74   DMPC H2S  HAL2   0.090000        1.0079           0
   21781 O1   74   DMPC C3   CTL2   0.080000       12.0107           0
   21782 O1   74   DMPC HX   HAL2   0.090000        1.0079           0
   21783 O1   74   DMPC HY   HAL2   0.090000        1.0079           0
   21784 O1   74   DMPC O31  OSL   -0.490000       15.9994           0
   21785 O1   74   DMPC C31  CL     0.900000       12.0107           0
   21786 O1   74   DMPC O32  OBL   -0.630000       15.9994           0
   21787 O1   74   DMPC C32  CTL2  -0.220000       12.0107           0
   21788 O1   74   DMPC H2X  HAL2   0.090000        1.0079           0
   21789 O1   74   DMPC H2Y  HAL2   0.090000        1.0079           0
   21790 O1   74   DMPC C23  CTL2  -0.180000       12.0107           0
   21791 O1   74   DMPC H3R  HAL2   0.090000        1.0079           0
   21792 O1   74   DMPC H3S  HAL2   0.090000        1.0079           0
   21793 O1   74   DMPC C24  CTL2  -0.180000       12.0107           0
   21794 O1   74   DMPC H4R  HAL2   0.090000        1.0079           0
   21795 O1   74   DMPC H4S  HAL2   0.090000        1.0079           0
   21796 O1   74   DMPC C25  CTL2  -0.180000       12.0107           0
   21797 O1   74   DMPC H5R  HAL2   0.090000        1.0079           0
   21798 O1   74   DMPC H5S  HAL2   0.090000        1.0079           0
   21799 O1   74   DMPC C26  CTL2  -0.180000       12.0107           0
   21800 O1   74   DMPC H6R  HAL2   0.090000        1.0079           0
   21801 O1   74   DMPC H6S  HAL2   0.090000        1.0079           0
   21802 O1   74   DMPC C27  CTL2  -0.180000       12.0107           0
   21803 O1   74   DMPC H7R  HAL2   0.090000        1.0079           0
   21804 O1   74   DMPC H7S  HAL2   0.090000        1.0079           0
   21805 O1   74   DMPC C28  CTL2  -0.180000       12.0107           0
   21806 O1   74   DMPC H8R  HAL2   0.090000        1.0079           0
   21807 O1   74   DMPC H8S  HAL2   0.090000        1.0079           0
   21808 O1   74   DMPC C29  CTL2  -0.180000       12.0107           0
   21809 O1   74   DMPC H9R  HAL2   0.090000        1.0079           0
   21810 O1   74   DMPC H9S  HAL2   0.090000        1.0079           0
   21811 O1   74   DMPC C210 CTL2  -0.180000       12.0107           0
   21812 O1   74   DMPC H10R HAL2   0.090000        1.0079           0
   21813 O1   74   DMPC H10S HAL2   0.090000        1.0079           0
   21814 O1   74   DMPC C211 CTL2  -0.180000       12.0107           0
   21815 O1   74   DMPC H11R HAL2   0.090000        1.0079           0
   21816 O1   74   DMPC H11S HAL2   0.090000        1.0079           0
   21817 O1   74   DMPC C212 CTL2  -0.180000       12.0107           0
   21818 O1   74   DMPC H12R HAL2   0.090000        1.0079           0
   21819 O1   74   DMPC H12S HAL2   0.090000        1.0079           0
   21820 O1   74   DMPC C213 CTL2  -0.180000       12.0107           0
   21821 O1   74   DMPC H13R HAL2   0.090000        1.0079           0
   21822 O1   74   DMPC H13S HAL2   0.090000        1.0079           0
   21823 O1   74   DMPC C214 CTL3  -0.270000       12.0107           0
   21824 O1   74   DMPC H14R HAL3   0.090000        1.0079           0
   21825 O1   74   DMPC H14S HAL3   0.090000        1.0079           0
   21826 O1   74   DMPC H14T HAL3   0.090000        1.0079           0
   21827 O1   74   DMPC C33  CTL2  -0.180000       12.0107           0
   21828 O1   74   DMPC H3X  HAL2   0.090000        1.0079           0
   21829 O1   74   DMPC H3Y  HAL2   0.090000        1.0079           0
   21830 O1   74   DMPC C34  CTL2  -0.180000       12.0107           0
   21831 O1   74   DMPC H4X  HAL2   0.090000        1.0079           0
   21832 O1   74   DMPC H4Y  HAL2   0.090000        1.0079           0
   21833 O1   74   DMPC C35  CTL2  -0.180000       12.0107           0
   21834 O1   74   DMPC H5X  HAL2   0.090000        1.0079           0
   21835 O1   74   DMPC H5Y  HAL2   0.090000        1.0079           0
   21836 O1   74   DMPC C36  CTL2  -0.180000       12.0107           0
   21837 O1   74   DMPC H6X  HAL2   0.090000        1.0079           0
   21838 O1   74   DMPC H6Y  HAL2   0.090000        1.0079           0
   21839 O1   74   DMPC C37  CTL2  -0.180000       12.0107           0
   21840 O1   74   DMPC H7X  HAL2   0.090000        1.0079           0
   21841 O1   74   DMPC H7Y  HAL2   0.090000        1.0079           0
   21842 O1   74   DMPC C38  CTL2  -0.180000       12.0107           0
   21843 O1   74   DMPC H8X  HAL2   0.090000        1.0079           0
   21844 O1   74   DMPC H8Y  HAL2   0.090000        1.0079           0
   21845 O1   74   DMPC C39  CTL2  -0.180000       12.0107           0
   21846 O1   74   DMPC H9X  HAL2   0.090000        1.0079           0
   21847 O1   74   DMPC H9Y  HAL2   0.090000        1.0079           0
   21848 O1   74   DMPC C310 CTL2  -0.180000       12.0107           0
   21849 O1   74   DMPC H10X HAL2   0.090000        1.0079           0
   21850 O1   74   DMPC H10Y HAL2   0.090000        1.0079           0
   21851 O1   74   DMPC C311 CTL2  -0.180000       12.0107           0
   21852 O1   74   DMPC H11X HAL2   0.090000        1.0079           0
   21853 O1   74   DMPC H11Y HAL2   0.090000        1.0079           0
   21854 O1   74   DMPC C312 CTL2  -0.180000       12.0107           0
   21855 O1   74   DMPC H12X HAL2   0.090000        1.0079           0
   21856 O1   74   DMPC H12Y HAL2   0.090000        1.0079           0
   21857 O1   74   DMPC C313 CTL2  -0.180000       12.0107           0
   21858 O1   74   DMPC H13X HAL2   0.090000        1.0079           0
   21859 O1   74   DMPC H13Y HAL2   0.090000        1.0079           0
   21860 O1   74   DMPC C314 CTL3  -0.270000       12.0107           0
   21861 O1   74   DMPC H14X HAL3   0.090000        1.0079           0
   21862 O1   74   DMPC H14Y HAL3   0.090000        1.0079           0
   21863 O1   74   DMPC H14Z HAL3   0.090000        1.0079           0
   21864 O1   75   DMPC N    NTL   -0.600000       14.0067           0
   21865 O1   75   DMPC C13  CTL5  -0.350000       12.0107           0
   21866 O1   75   DMPC H13A HL     0.250000        1.0079           0
   21867 O1   75   DMPC H13B HL     0.250000        1.0079           0
   21868 O1   75   DMPC H13C HL     0.250000        1.0079           0
   21869 O1   75   DMPC C14  CTL5  -0.350000       12.0107           0
   21870 O1   75   DMPC H14A HL     0.250000        1.0079           0
   21871 O1   75   DMPC H14B HL     0.250000        1.0079           0
   21872 O1   75   DMPC H14C HL     0.250000        1.0079           0
   21873 O1   75   DMPC C15  CTL5  -0.350000       12.0107           0
   21874 O1   75   DMPC H15A HL     0.250000        1.0079           0
   21875 O1   75   DMPC H15B HL     0.250000        1.0079           0
   21876 O1   75   DMPC H15C HL     0.250000        1.0079           0
   21877 O1   75   DMPC C12  CTL2  -0.100000       12.0107           0
   21878 O1   75   DMPC H12A HL     0.250000        1.0079           0
   21879 O1   75   DMPC H12B HL     0.250000        1.0079           0
   21880 O1   75   DMPC C11  CTL2  -0.080000       12.0107           0
   21881 O1   75   DMPC H11A HAL2   0.090000        1.0079           0
   21882 O1   75   DMPC H11B HAL2   0.090000        1.0079           0
   21883 O1   75   DMPC P    PL     1.500000       30.9738           0
   21884 O1   75   DMPC O13  O2L   -0.780000       15.9994           0
   21885 O1   75   DMPC O14  O2L   -0.780000       15.9994           0
   21886 O1   75   DMPC O11  OSLP  -0.570000       15.9994           0
   21887 O1   75   DMPC O12  OSLP  -0.570000       15.9994           0
   21888 O1   75   DMPC C1   CTL2  -0.080000       12.0107           0
   21889 O1   75   DMPC HA   HAL2   0.090000        1.0079           0
   21890 O1   75   DMPC HB   HAL2   0.090000        1.0079           0
   21891 O1   75   DMPC C2   CTL1   0.170000       12.0107           0
   21892 O1   75   DMPC HS   HAL1   0.090000        1.0079           0
   21893 O1   75   DMPC O21  OSL   -0.490000       15.9994           0
   21894 O1   75   DMPC C21  CL     0.900000       12.0107           0
   21895 O1   75   DMPC O22  OBL   -0.630000       15.9994           0
   21896 O1   75   DMPC C22  CTL2  -0.220000       12.0107           0
   21897 O1   75   DMPC H2R  HAL2   0.090000        1.0079           0
   21898 O1   75   DMPC H2S  HAL2   0.090000        1.0079           0
   21899 O1   75   DMPC C3   CTL2   0.080000       12.0107           0
   21900 O1   75   DMPC HX   HAL2   0.090000        1.0079           0
   21901 O1   75   DMPC HY   HAL2   0.090000        1.0079           0
   21902 O1   75   DMPC O31  OSL   -0.490000       15.9994           0
   21903 O1   75   DMPC C31  CL     0.900000       12.0107           0
   21904 O1   75   DMPC O32  OBL   -0.630000       15.9994           0
   21905 O1   75   DMPC C32  CTL2  -0.220000       12.0107           0
   21906 O1   75   DMPC H2X  HAL2   0.090000        1.0079           0
   21907 O1   75   DMPC H2Y  HAL2   0.090000        1.0079           0
   21908 O1   75   DMPC C23  CTL2  -0.180000       12.0107           0
   21909 O1   75   DMPC H3R  HAL2   0.090000        1.0079           0
   21910 O1   75   DMPC H3S  HAL2   0.090000        1.0079           0
   21911 O1   75   DMPC C24  CTL2  -0.180000       12.0107           0
   21912 O1   75   DMPC H4R  HAL2   0.090000        1.0079           0
   21913 O1   75   DMPC H4S  HAL2   0.090000        1.0079           0
   21914 O1   75   DMPC C25  CTL2  -0.180000       12.0107           0
   21915 O1   75   DMPC H5R  HAL2   0.090000        1.0079           0
   21916 O1   75   DMPC H5S  HAL2   0.090000        1.0079           0
   21917 O1   75   DMPC C26  CTL2  -0.180000       12.0107           0
   21918 O1   75   DMPC H6R  HAL2   0.090000        1.0079           0
   21919 O1   75   DMPC H6S  HAL2   0.090000        1.0079           0
   21920 O1   75   DMPC C27  CTL2  -0.180000       12.0107           0
   21921 O1   75   DMPC H7R  HAL2   0.090000        1.0079           0
   21922 O1   75   DMPC H7S  HAL2   0.090000        1.0079           0
   21923 O1   75   DMPC C28  CTL2  -0.180000       12.0107           0
   21924 O1   75   DMPC H8R  HAL2   0.090000        1.0079           0
   21925 O1   75   DMPC H8S  HAL2   0.090000        1.0079           0
   21926 O1   75   DMPC C29  CTL2  -0.180000       12.0107           0
   21927 O1   75   DMPC H9R  HAL2   0.090000        1.0079           0
   21928 O1   75   DMPC H9S  HAL2   0.090000        1.0079           0
   21929 O1   75   DMPC C210 CTL2  -0.180000       12.0107           0
   21930 O1   75   DMPC H10R HAL2   0.090000        1.0079           0
   21931 O1   75   DMPC H10S HAL2   0.090000        1.0079           0
   21932 O1   75   DMPC C211 CTL2  -0.180000       12.0107           0
   21933 O1   75   DMPC H11R HAL2   0.090000        1.0079           0
   21934 O1   75   DMPC H11S HAL2   0.090000        1.0079           0
   21935 O1   75   DMPC C212 CTL2  -0.180000       12.0107           0
   21936 O1   75   DMPC H12R HAL2   0.090000        1.0079           0
   21937 O1   75   DMPC H12S HAL2   0.090000        1.0079           0
   21938 O1   75   DMPC C213 CTL2  -0.180000       12.0107           0
   21939 O1   75   DMPC H13R HAL2   0.090000        1.0079           0
   21940 O1   75   DMPC H13S HAL2   0.090000        1.0079           0
   21941 O1   75   DMPC C214 CTL3  -0.270000       12.0107           0
   21942 O1   75   DMPC H14R HAL3   0.090000        1.0079           0
   21943 O1   75   DMPC H14S HAL3   0.090000        1.0079           0
   21944 O1   75   DMPC H14T HAL3   0.090000        1.0079           0
   21945 O1   75   DMPC C33  CTL2  -0.180000       12.0107           0
   21946 O1   75   DMPC H3X  HAL2   0.090000        1.0079           0
   21947 O1   75   DMPC H3Y  HAL2   0.090000        1.0079           0
   21948 O1   75   DMPC C34  CTL2  -0.180000       12.0107           0
   21949 O1   75   DMPC H4X  HAL2   0.090000        1.0079           0
   21950 O1   75   DMPC H4Y  HAL2   0.090000        1.0079           0
   21951 O1   75   DMPC C35  CTL2  -0.180000       12.0107           0
   21952 O1   75   DMPC H5X  HAL2   0.090000        1.0079           0
   21953 O1   75   DMPC H5Y  HAL2   0.090000        1.0079           0
   21954 O1   75   DMPC C36  CTL2  -0.180000       12.0107           0
   21955 O1   75   DMPC H6X  HAL2   0.090000        1.0079           0
   21956 O1   75   DMPC H6Y  HAL2   0.090000        1.0079           0
   21957 O1   75   DMPC C37  CTL2  -0.180000       12.0107           0
   21958 O1   75   DMPC H7X  HAL2   0.090000        1.0079           0
   21959 O1   75   DMPC H7Y  HAL2   0.090000        1.0079           0
   21960 O1   75   DMPC C38  CTL2  -0.180000       12.0107           0
   21961 O1   75   DMPC H8X  HAL2   0.090000        1.0079           0
   21962 O1   75   DMPC H8Y  HAL2   0.090000        1.0079           0
   21963 O1   75   DMPC C39  CTL2  -0.180000       12.0107           0
   21964 O1   75   DMPC H9X  HAL2   0.090000        1.0079           0
   21965 O1   75   DMPC H9Y  HAL2   0.090000        1.0079           0
   21966 O1   75   DMPC C310 CTL2  -0.180000       12.0107           0
   21967 O1   75   DMPC H10X HAL2   0.090000        1.0079           0
   21968 O1   75   DMPC H10Y HAL2   0.090000        1.0079           0
   21969 O1   75   DMPC C311 CTL2  -0.180000       12.0107           0
   21970 O1   75   DMPC H11X HAL2   0.090000        1.0079           0
   21971 O1   75   DMPC H11Y HAL2   0.090000        1.0079           0
   21972 O1   75   DMPC C312 CTL2  -0.180000       12.0107           0
   21973 O1   75   DMPC H12X HAL2   0.090000        1.0079           0
   21974 O1   75   DMPC H12Y HAL2   0.090000        1.0079           0
   21975 O1   75   DMPC C313 CTL2  -0.180000       12.0107           0
   21976 O1   75   DMPC H13X HAL2   0.090000        1.0079           0
   21977 O1   75   DMPC H13Y HAL2   0.090000        1.0079           0
   21978 O1   75   DMPC C314 CTL3  -0.270000       12.0107           0
   21979 O1   75   DMPC H14X HAL3   0.090000        1.0079           0
   21980 O1   75   DMPC H14Y HAL3   0.090000        1.0079           0
   21981 O1   75   DMPC H14Z HAL3   0.090000        1.0079           0
   21982 O1   76   DMPC N    NTL   -0.600000       14.0067           0
   21983 O1   76   DMPC C13  CTL5  -0.350000       12.0107           0
   21984 O1   76   DMPC H13A HL     0.250000        1.0079           0
   21985 O1   76   DMPC H13B HL     0.250000        1.0079           0
   21986 O1   76   DMPC H13C HL     0.250000        1.0079           0
   21987 O1   76   DMPC C14  CTL5  -0.350000       12.0107           0
   21988 O1   76   DMPC H14A HL     0.250000        1.0079           0
   21989 O1   76   DMPC H14B HL     0.250000        1.0079           0
   21990 O1   76   DMPC H14C HL     0.250000        1.0079           0
   21991 O1   76   DMPC C15  CTL5  -0.350000       12.0107           0
   21992 O1   76   DMPC H15A HL     0.250000        1.0079           0
   21993 O1   76   DMPC H15B HL     0.250000        1.0079           0
   21994 O1   76   DMPC H15C HL     0.250000        1.0079           0
   21995 O1   76   DMPC C12  CTL2  -0.100000       12.0107           0
   21996 O1   76   DMPC H12A HL     0.250000        1.0079           0
   21997 O1   76   DMPC H12B HL     0.250000        1.0079           0
   21998 O1   76   DMPC C11  CTL2  -0.080000       12.0107           0
   21999 O1   76   DMPC H11A HAL2   0.090000        1.0079           0
   22000 O1   76   DMPC H11B HAL2   0.090000        1.0079           0
   22001 O1   76   DMPC P    PL     1.500000       30.9738           0
   22002 O1   76   DMPC O13  O2L   -0.780000       15.9994           0
   22003 O1   76   DMPC O14  O2L   -0.780000       15.9994           0
   22004 O1   76   DMPC O11  OSLP  -0.570000       15.9994           0
   22005 O1   76   DMPC O12  OSLP  -0.570000       15.9994           0
   22006 O1   76   DMPC C1   CTL2  -0.080000       12.0107           0
   22007 O1   76   DMPC HA   HAL2   0.090000        1.0079           0
   22008 O1   76   DMPC HB   HAL2   0.090000        1.0079           0
   22009 O1   76   DMPC C2   CTL1   0.170000       12.0107           0
   22010 O1   76   DMPC HS   HAL1   0.090000        1.0079           0
   22011 O1   76   DMPC O21  OSL   -0.490000       15.9994           0
   22012 O1   76   DMPC C21  CL     0.900000       12.0107           0
   22013 O1   76   DMPC O22  OBL   -0.630000       15.9994           0
   22014 O1   76   DMPC C22  CTL2  -0.220000       12.0107           0
   22015 O1   76   DMPC H2R  HAL2   0.090000        1.0079           0
   22016 O1   76   DMPC H2S  HAL2   0.090000        1.0079           0
   22017 O1   76   DMPC C3   CTL2   0.080000       12.0107           0
   22018 O1   76   DMPC HX   HAL2   0.090000        1.0079           0
   22019 O1   76   DMPC HY   HAL2   0.090000        1.0079           0
   22020 O1   76   DMPC O31  OSL   -0.490000       15.9994           0
   22021 O1   76   DMPC C31  CL     0.900000       12.0107           0
   22022 O1   76   DMPC O32  OBL   -0.630000       15.9994           0
   22023 O1   76   DMPC C32  CTL2  -0.220000       12.0107           0
   22024 O1   76   DMPC H2X  HAL2   0.090000        1.0079           0
   22025 O1   76   DMPC H2Y  HAL2   0.090000        1.0079           0
   22026 O1   76   DMPC C23  CTL2  -0.180000       12.0107           0
   22027 O1   76   DMPC H3R  HAL2   0.090000        1.0079           0
   22028 O1   76   DMPC H3S  HAL2   0.090000        1.0079           0
   22029 O1   76   DMPC C24  CTL2  -0.180000       12.0107           0
   22030 O1   76   DMPC H4R  HAL2   0.090000        1.0079           0
   22031 O1   76   DMPC H4S  HAL2   0.090000        1.0079           0
   22032 O1   76   DMPC C25  CTL2  -0.180000       12.0107           0
   22033 O1   76   DMPC H5R  HAL2   0.090000        1.0079           0
   22034 O1   76   DMPC H5S  HAL2   0.090000        1.0079           0
   22035 O1   76   DMPC C26  CTL2  -0.180000       12.0107           0
   22036 O1   76   DMPC H6R  HAL2   0.090000        1.0079           0
   22037 O1   76   DMPC H6S  HAL2   0.090000        1.0079           0
   22038 O1   76   DMPC C27  CTL2  -0.180000       12.0107           0
   22039 O1   76   DMPC H7R  HAL2   0.090000        1.0079           0
   22040 O1   76   DMPC H7S  HAL2   0.090000        1.0079           0
   22041 O1   76   DMPC C28  CTL2  -0.180000       12.0107           0
   22042 O1   76   DMPC H8R  HAL2   0.090000        1.0079           0
   22043 O1   76   DMPC H8S  HAL2   0.090000        1.0079           0
   22044 O1   76   DMPC C29  CTL2  -0.180000       12.0107           0
   22045 O1   76   DMPC H9R  HAL2   0.090000        1.0079           0
   22046 O1   76   DMPC H9S  HAL2   0.090000        1.0079           0
   22047 O1   76   DMPC C210 CTL2  -0.180000       12.0107           0
   22048 O1   76   DMPC H10R HAL2   0.090000        1.0079           0
   22049 O1   76   DMPC H10S HAL2   0.090000        1.0079           0
   22050 O1   76   DMPC C211 CTL2  -0.180000       12.0107           0
   22051 O1   76   DMPC H11R HAL2   0.090000        1.0079           0
   22052 O1   76   DMPC H11S HAL2   0.090000        1.0079           0
   22053 O1   76   DMPC C212 CTL2  -0.180000       12.0107           0
   22054 O1   76   DMPC H12R HAL2   0.090000        1.0079           0
   22055 O1   76   DMPC H12S HAL2   0.090000        1.0079           0
   22056 O1   76   DMPC C213 CTL2  -0.180000       12.0107           0
   22057 O1   76   DMPC H13R HAL2   0.090000        1.0079           0
   22058 O1   76   DMPC H13S HAL2   0.090000        1.0079           0
   22059 O1   76   DMPC C214 CTL3  -0.270000       12.0107           0
   22060 O1   76   DMPC H14R HAL3   0.090000        1.0079           0
   22061 O1   76   DMPC H14S HAL3   0.090000        1.0079           0
   22062 O1   76   DMPC H14T HAL3   0.090000        1.0079           0
   22063 O1   76   DMPC C33  CTL2  -0.180000       12.0107           0
   22064 O1   76   DMPC H3X  HAL2   0.090000        1.0079           0
   22065 O1   76   DMPC H3Y  HAL2   0.090000        1.0079           0
   22066 O1   76   DMPC C34  CTL2  -0.180000       12.0107           0
   22067 O1   76   DMPC H4X  HAL2   0.090000        1.0079           0
   22068 O1   76   DMPC H4Y  HAL2   0.090000        1.0079           0
   22069 O1   76   DMPC C35  CTL2  -0.180000       12.0107           0
   22070 O1   76   DMPC H5X  HAL2   0.090000        1.0079           0
   22071 O1   76   DMPC H5Y  HAL2   0.090000        1.0079           0
   22072 O1   76   DMPC C36  CTL2  -0.180000       12.0107           0
   22073 O1   76   DMPC H6X  HAL2   0.090000        1.0079           0
   22074 O1   76   DMPC H6Y  HAL2   0.090000        1.0079           0
   22075 O1   76   DMPC C37  CTL2  -0.180000       12.0107           0
   22076 O1   76   DMPC H7X  HAL2   0.090000        1.0079           0
   22077 O1   76   DMPC H7Y  HAL2   0.090000        1.0079           0
   22078 O1   76   DMPC C38  CTL2  -0.180000       12.0107           0
   22079 O1   76   DMPC H8X  HAL2   0.090000        1.0079           0
   22080 O1   76   DMPC H8Y  HAL2   0.090000        1.0079           0
   22081 O1   76   DMPC C39  CTL2  -0.180000       12.0107           0
   22082 O1   76   DMPC H9X  HAL2   0.090000        1.0079           0
   22083 O1   76   DMPC H9Y  HAL2   0.090000        1.0079           0
   22084 O1   76   DMPC C310 CTL2  -0.180000       12.0107           0
   22085 O1   76   DMPC H10X HAL2   0.090000        1.0079           0
   22086 O1   76   DMPC H10Y HAL2   0.090000        1.0079           0
   22087 O1   76   DMPC C311 CTL2  -0.180000       12.0107           0
   22088 O1   76   DMPC H11X HAL2   0.090000        1.0079           0
   22089 O1   76   DMPC H11Y HAL2   0.090000        1.0079           0
   22090 O1   76   DMPC C312 CTL2  -0.180000       12.0107           0
   22091 O1   76   DMPC H12X HAL2   0.090000        1.0079           0
   22092 O1   76   DMPC H12Y HAL2   0.090000        1.0079           0
   22093 O1   76   DMPC C313 CTL2  -0.180000       12.0107           0
   22094 O1   76   DMPC H13X HAL2   0.090000        1.0079           0
   22095 O1   76   DMPC H13Y HAL2   0.090000        1.0079           0
   22096 O1   76   DMPC C314 CTL3  -0.270000       12.0107           0
   22097 O1   76   DMPC H14X HAL3   0.090000        1.0079           0
   22098 O1   76   DMPC H14Y HAL3   0.090000        1.0079           0
   22099 O1   76   DMPC H14Z HAL3   0.090000        1.0079           0
   22100 O1   77   DMPC N    NTL   -0.600000       14.0067           0
   22101 O1   77   DMPC C13  CTL5  -0.350000       12.0107           0
   22102 O1   77   DMPC H13A HL     0.250000        1.0079           0
   22103 O1   77   DMPC H13B HL     0.250000        1.0079           0
   22104 O1   77   DMPC H13C HL     0.250000        1.0079           0
   22105 O1   77   DMPC C14  CTL5  -0.350000       12.0107           0
   22106 O1   77   DMPC H14A HL     0.250000        1.0079           0
   22107 O1   77   DMPC H14B HL     0.250000        1.0079           0
   22108 O1   77   DMPC H14C HL     0.250000        1.0079           0
   22109 O1   77   DMPC C15  CTL5  -0.350000       12.0107           0
   22110 O1   77   DMPC H15A HL     0.250000        1.0079           0
   22111 O1   77   DMPC H15B HL     0.250000        1.0079           0
   22112 O1   77   DMPC H15C HL     0.250000        1.0079           0
   22113 O1   77   DMPC C12  CTL2  -0.100000       12.0107           0
   22114 O1   77   DMPC H12A HL     0.250000        1.0079           0
   22115 O1   77   DMPC H12B HL     0.250000        1.0079           0
   22116 O1   77   DMPC C11  CTL2  -0.080000       12.0107           0
   22117 O1   77   DMPC H11A HAL2   0.090000        1.0079           0
   22118 O1   77   DMPC H11B HAL2   0.090000        1.0079           0
   22119 O1   77   DMPC P    PL     1.500000       30.9738           0
   22120 O1   77   DMPC O13  O2L   -0.780000       15.9994           0
   22121 O1   77   DMPC O14  O2L   -0.780000       15.9994           0
   22122 O1   77   DMPC O11  OSLP  -0.570000       15.9994           0
   22123 O1   77   DMPC O12  OSLP  -0.570000       15.9994           0
   22124 O1   77   DMPC C1   CTL2  -0.080000       12.0107           0
   22125 O1   77   DMPC HA   HAL2   0.090000        1.0079           0
   22126 O1   77   DMPC HB   HAL2   0.090000        1.0079           0
   22127 O1   77   DMPC C2   CTL1   0.170000       12.0107           0
   22128 O1   77   DMPC HS   HAL1   0.090000        1.0079           0
   22129 O1   77   DMPC O21  OSL   -0.490000       15.9994           0
   22130 O1   77   DMPC C21  CL     0.900000       12.0107           0
   22131 O1   77   DMPC O22  OBL   -0.630000       15.9994           0
   22132 O1   77   DMPC C22  CTL2  -0.220000       12.0107           0
   22133 O1   77   DMPC H2R  HAL2   0.090000        1.0079           0
   22134 O1   77   DMPC H2S  HAL2   0.090000        1.0079           0
   22135 O1   77   DMPC C3   CTL2   0.080000       12.0107           0
   22136 O1   77   DMPC HX   HAL2   0.090000        1.0079           0
   22137 O1   77   DMPC HY   HAL2   0.090000        1.0079           0
   22138 O1   77   DMPC O31  OSL   -0.490000       15.9994           0
   22139 O1   77   DMPC C31  CL     0.900000       12.0107           0
   22140 O1   77   DMPC O32  OBL   -0.630000       15.9994           0
   22141 O1   77   DMPC C32  CTL2  -0.220000       12.0107           0
   22142 O1   77   DMPC H2X  HAL2   0.090000        1.0079           0
   22143 O1   77   DMPC H2Y  HAL2   0.090000        1.0079           0
   22144 O1   77   DMPC C23  CTL2  -0.180000       12.0107           0
   22145 O1   77   DMPC H3R  HAL2   0.090000        1.0079           0
   22146 O1   77   DMPC H3S  HAL2   0.090000        1.0079           0
   22147 O1   77   DMPC C24  CTL2  -0.180000       12.0107           0
   22148 O1   77   DMPC H4R  HAL2   0.090000        1.0079           0
   22149 O1   77   DMPC H4S  HAL2   0.090000        1.0079           0
   22150 O1   77   DMPC C25  CTL2  -0.180000       12.0107           0
   22151 O1   77   DMPC H5R  HAL2   0.090000        1.0079           0
   22152 O1   77   DMPC H5S  HAL2   0.090000        1.0079           0
   22153 O1   77   DMPC C26  CTL2  -0.180000       12.0107           0
   22154 O1   77   DMPC H6R  HAL2   0.090000        1.0079           0
   22155 O1   77   DMPC H6S  HAL2   0.090000        1.0079           0
   22156 O1   77   DMPC C27  CTL2  -0.180000       12.0107           0
   22157 O1   77   DMPC H7R  HAL2   0.090000        1.0079           0
   22158 O1   77   DMPC H7S  HAL2   0.090000        1.0079           0
   22159 O1   77   DMPC C28  CTL2  -0.180000       12.0107           0
   22160 O1   77   DMPC H8R  HAL2   0.090000        1.0079           0
   22161 O1   77   DMPC H8S  HAL2   0.090000        1.0079           0
   22162 O1   77   DMPC C29  CTL2  -0.180000       12.0107           0
   22163 O1   77   DMPC H9R  HAL2   0.090000        1.0079           0
   22164 O1   77   DMPC H9S  HAL2   0.090000        1.0079           0
   22165 O1   77   DMPC C210 CTL2  -0.180000       12.0107           0
   22166 O1   77   DMPC H10R HAL2   0.090000        1.0079           0
   22167 O1   77   DMPC H10S HAL2   0.090000        1.0079           0
   22168 O1   77   DMPC C211 CTL2  -0.180000       12.0107           0
   22169 O1   77   DMPC H11R HAL2   0.090000        1.0079           0
   22170 O1   77   DMPC H11S HAL2   0.090000        1.0079           0
   22171 O1   77   DMPC C212 CTL2  -0.180000       12.0107           0
   22172 O1   77   DMPC H12R HAL2   0.090000        1.0079           0
   22173 O1   77   DMPC H12S HAL2   0.090000        1.0079           0
   22174 O1   77   DMPC C213 CTL2  -0.180000       12.0107           0
   22175 O1   77   DMPC H13R HAL2   0.090000        1.0079           0
   22176 O1   77   DMPC H13S HAL2   0.090000        1.0079           0
   22177 O1   77   DMPC C214 CTL3  -0.270000       12.0107           0
   22178 O1   77   DMPC H14R HAL3   0.090000        1.0079           0
   22179 O1   77   DMPC H14S HAL3   0.090000        1.0079           0
   22180 O1   77   DMPC H14T HAL3   0.090000        1.0079           0
   22181 O1   77   DMPC C33  CTL2  -0.180000       12.0107           0
   22182 O1   77   DMPC H3X  HAL2   0.090000        1.0079           0
   22183 O1   77   DMPC H3Y  HAL2   0.090000        1.0079           0
   22184 O1   77   DMPC C34  CTL2  -0.180000       12.0107           0
   22185 O1   77   DMPC H4X  HAL2   0.090000        1.0079           0
   22186 O1   77   DMPC H4Y  HAL2   0.090000        1.0079           0
   22187 O1   77   DMPC C35  CTL2  -0.180000       12.0107           0
   22188 O1   77   DMPC H5X  HAL2   0.090000        1.0079           0
   22189 O1   77   DMPC H5Y  HAL2   0.090000        1.0079           0
   22190 O1   77   DMPC C36  CTL2  -0.180000       12.0107           0
   22191 O1   77   DMPC H6X  HAL2   0.090000        1.0079           0
   22192 O1   77   DMPC H6Y  HAL2   0.090000        1.0079           0
   22193 O1   77   DMPC C37  CTL2  -0.180000       12.0107           0
   22194 O1   77   DMPC H7X  HAL2   0.090000        1.0079           0
   22195 O1   77   DMPC H7Y  HAL2   0.090000        1.0079           0
   22196 O1   77   DMPC C38  CTL2  -0.180000       12.0107           0
   22197 O1   77   DMPC H8X  HAL2   0.090000        1.0079           0
   22198 O1   77   DMPC H8Y  HAL2   0.090000        1.0079           0
   22199 O1   77   DMPC C39  CTL2  -0.180000       12.0107           0
   22200 O1   77   DMPC H9X  HAL2   0.090000        1.0079           0
   22201 O1   77   DMPC H9Y  HAL2   0.090000        1.0079           0
   22202 O1   77   DMPC C310 CTL2  -0.180000       12.0107           0
   22203 O1   77   DMPC H10X HAL2   0.090000        1.0079           0
   22204 O1   77   DMPC H10Y HAL2   0.090000        1.0079           0
   22205 O1   77   DMPC C311 CTL2  -0.180000       12.0107           0
   22206 O1   77   DMPC H11X HAL2   0.090000        1.0079           0
   22207 O1   77   DMPC H11Y HAL2   0.090000        1.0079           0
   22208 O1   77   DMPC C312 CTL2  -0.180000       12.0107           0
   22209 O1   77   DMPC H12X HAL2   0.090000        1.0079           0
   22210 O1   77   DMPC H12Y HAL2   0.090000        1.0079           0
   22211 O1   77   DMPC C313 CTL2  -0.180000       12.0107           0
   22212 O1   77   DMPC H13X HAL2   0.090000        1.0079           0
   22213 O1   77   DMPC H13Y HAL2   0.090000        1.0079           0
   22214 O1   77   DMPC C314 CTL3  -0.270000       12.0107           0
   22215 O1   77   DMPC H14X HAL3   0.090000        1.0079           0
   22216 O1   77   DMPC H14Y HAL3   0.090000        1.0079           0
   22217 O1   77   DMPC H14Z HAL3   0.090000        1.0079           0
   22218 O1   78   DMPC N    NTL   -0.600000       14.0067           0
   22219 O1   78   DMPC C13  CTL5  -0.350000       12.0107           0
   22220 O1   78   DMPC H13A HL     0.250000        1.0079           0
   22221 O1   78   DMPC H13B HL     0.250000        1.0079           0
   22222 O1   78   DMPC H13C HL     0.250000        1.0079           0
   22223 O1   78   DMPC C14  CTL5  -0.350000       12.0107           0
   22224 O1   78   DMPC H14A HL     0.250000        1.0079           0
   22225 O1   78   DMPC H14B HL     0.250000        1.0079           0
   22226 O1   78   DMPC H14C HL     0.250000        1.0079           0
   22227 O1   78   DMPC C15  CTL5  -0.350000       12.0107           0
   22228 O1   78   DMPC H15A HL     0.250000        1.0079           0
   22229 O1   78   DMPC H15B HL     0.250000        1.0079           0
   22230 O1   78   DMPC H15C HL     0.250000        1.0079           0
   22231 O1   78   DMPC C12  CTL2  -0.100000       12.0107           0
   22232 O1   78   DMPC H12A HL     0.250000        1.0079           0
   22233 O1   78   DMPC H12B HL     0.250000        1.0079           0
   22234 O1   78   DMPC C11  CTL2  -0.080000       12.0107           0
   22235 O1   78   DMPC H11A HAL2   0.090000        1.0079           0
   22236 O1   78   DMPC H11B HAL2   0.090000        1.0079           0
   22237 O1   78   DMPC P    PL     1.500000       30.9738           0
   22238 O1   78   DMPC O13  O2L   -0.780000       15.9994           0
   22239 O1   78   DMPC O14  O2L   -0.780000       15.9994           0
   22240 O1   78   DMPC O11  OSLP  -0.570000       15.9994           0
   22241 O1   78   DMPC O12  OSLP  -0.570000       15.9994           0
   22242 O1   78   DMPC C1   CTL2  -0.080000       12.0107           0
   22243 O1   78   DMPC HA   HAL2   0.090000        1.0079           0
   22244 O1   78   DMPC HB   HAL2   0.090000        1.0079           0
   22245 O1   78   DMPC C2   CTL1   0.170000       12.0107           0
   22246 O1   78   DMPC HS   HAL1   0.090000        1.0079           0
   22247 O1   78   DMPC O21  OSL   -0.490000       15.9994           0
   22248 O1   78   DMPC C21  CL     0.900000       12.0107           0
   22249 O1   78   DMPC O22  OBL   -0.630000       15.9994           0
   22250 O1   78   DMPC C22  CTL2  -0.220000       12.0107           0
   22251 O1   78   DMPC H2R  HAL2   0.090000        1.0079           0
   22252 O1   78   DMPC H2S  HAL2   0.090000        1.0079           0
   22253 O1   78   DMPC C3   CTL2   0.080000       12.0107           0
   22254 O1   78   DMPC HX   HAL2   0.090000        1.0079           0
   22255 O1   78   DMPC HY   HAL2   0.090000        1.0079           0
   22256 O1   78   DMPC O31  OSL   -0.490000       15.9994           0
   22257 O1   78   DMPC C31  CL     0.900000       12.0107           0
   22258 O1   78   DMPC O32  OBL   -0.630000       15.9994           0
   22259 O1   78   DMPC C32  CTL2  -0.220000       12.0107           0
   22260 O1   78   DMPC H2X  HAL2   0.090000        1.0079           0
   22261 O1   78   DMPC H2Y  HAL2   0.090000        1.0079           0
   22262 O1   78   DMPC C23  CTL2  -0.180000       12.0107           0
   22263 O1   78   DMPC H3R  HAL2   0.090000        1.0079           0
   22264 O1   78   DMPC H3S  HAL2   0.090000        1.0079           0
   22265 O1   78   DMPC C24  CTL2  -0.180000       12.0107           0
   22266 O1   78   DMPC H4R  HAL2   0.090000        1.0079           0
   22267 O1   78   DMPC H4S  HAL2   0.090000        1.0079           0
   22268 O1   78   DMPC C25  CTL2  -0.180000       12.0107           0
   22269 O1   78   DMPC H5R  HAL2   0.090000        1.0079           0
   22270 O1   78   DMPC H5S  HAL2   0.090000        1.0079           0
   22271 O1   78   DMPC C26  CTL2  -0.180000       12.0107           0
   22272 O1   78   DMPC H6R  HAL2   0.090000        1.0079           0
   22273 O1   78   DMPC H6S  HAL2   0.090000        1.0079           0
   22274 O1   78   DMPC C27  CTL2  -0.180000       12.0107           0
   22275 O1   78   DMPC H7R  HAL2   0.090000        1.0079           0
   22276 O1   78   DMPC H7S  HAL2   0.090000        1.0079           0
   22277 O1   78   DMPC C28  CTL2  -0.180000       12.0107           0
   22278 O1   78   DMPC H8R  HAL2   0.090000        1.0079           0
   22279 O1   78   DMPC H8S  HAL2   0.090000        1.0079           0
   22280 O1   78   DMPC C29  CTL2  -0.180000       12.0107           0
   22281 O1   78   DMPC H9R  HAL2   0.090000        1.0079           0
   22282 O1   78   DMPC H9S  HAL2   0.090000        1.0079           0
   22283 O1   78   DMPC C210 CTL2  -0.180000       12.0107           0
   22284 O1   78   DMPC H10R HAL2   0.090000        1.0079           0
   22285 O1   78   DMPC H10S HAL2   0.090000        1.0079           0
   22286 O1   78   DMPC C211 CTL2  -0.180000       12.0107           0
   22287 O1   78   DMPC H11R HAL2   0.090000        1.0079           0
   22288 O1   78   DMPC H11S HAL2   0.090000        1.0079           0
   22289 O1   78   DMPC C212 CTL2  -0.180000       12.0107           0
   22290 O1   78   DMPC H12R HAL2   0.090000        1.0079           0
   22291 O1   78   DMPC H12S HAL2   0.090000        1.0079           0
   22292 O1   78   DMPC C213 CTL2  -0.180000       12.0107           0
   22293 O1   78   DMPC H13R HAL2   0.090000        1.0079           0
   22294 O1   78   DMPC H13S HAL2   0.090000        1.0079           0
   22295 O1   78   DMPC C214 CTL3  -0.270000       12.0107           0
   22296 O1   78   DMPC H14R HAL3   0.090000        1.0079           0
   22297 O1   78   DMPC H14S HAL3   0.090000        1.0079           0
   22298 O1   78   DMPC H14T HAL3   0.090000        1.0079           0
   22299 O1   78   DMPC C33  CTL2  -0.180000       12.0107           0
   22300 O1   78   DMPC H3X  HAL2   0.090000        1.0079           0
   22301 O1   78   DMPC H3Y  HAL2   0.090000        1.0079           0
   22302 O1   78   DMPC C34  CTL2  -0.180000       12.0107           0
   22303 O1   78   DMPC H4X  HAL2   0.090000        1.0079           0
   22304 O1   78   DMPC H4Y  HAL2   0.090000        1.0079           0
   22305 O1   78   DMPC C35  CTL2  -0.180000       12.0107           0
   22306 O1   78   DMPC H5X  HAL2   0.090000        1.0079           0
   22307 O1   78   DMPC H5Y  HAL2   0.090000        1.0079           0
   22308 O1   78   DMPC C36  CTL2  -0.180000       12.0107           0
   22309 O1   78   DMPC H6X  HAL2   0.090000        1.0079           0
   22310 O1   78   DMPC H6Y  HAL2   0.090000        1.0079           0
   22311 O1   78   DMPC C37  CTL2  -0.180000       12.0107           0
   22312 O1   78   DMPC H7X  HAL2   0.090000        1.0079           0
   22313 O1   78   DMPC H7Y  HAL2   0.090000        1.0079           0
   22314 O1   78   DMPC C38  CTL2  -0.180000       12.0107           0
   22315 O1   78   DMPC H8X  HAL2   0.090000        1.0079           0
   22316 O1   78   DMPC H8Y  HAL2   0.090000        1.0079           0
   22317 O1   78   DMPC C39  CTL2  -0.180000       12.0107           0
   22318 O1   78   DMPC H9X  HAL2   0.090000        1.0079           0
   22319 O1   78   DMPC H9Y  HAL2   0.090000        1.0079           0
   22320 O1   78   DMPC C310 CTL2  -0.180000       12.0107           0
   22321 O1   78   DMPC H10X HAL2   0.090000        1.0079           0
   22322 O1   78   DMPC H10Y HAL2   0.090000        1.0079           0
   22323 O1   78   DMPC C311 CTL2  -0.180000       12.0107           0
   22324 O1   78   DMPC H11X HAL2   0.090000        1.0079           0
   22325 O1   78   DMPC H11Y HAL2   0.090000        1.0079           0
   22326 O1   78   DMPC C312 CTL2  -0.180000       12.0107           0
   22327 O1   78   DMPC H12X HAL2   0.090000        1.0079           0
   22328 O1   78   DMPC H12Y HAL2   0.090000        1.0079           0
   22329 O1   78   DMPC C313 CTL2  -0.180000       12.0107           0
   22330 O1   78   DMPC H13X HAL2   0.090000        1.0079           0
   22331 O1   78   DMPC H13Y HAL2   0.090000        1.0079           0
   22332 O1   78   DMPC C314 CTL3  -0.270000       12.0107           0
   22333 O1   78   DMPC H14X HAL3   0.090000        1.0079           0
   22334 O1   78   DMPC H14Y HAL3   0.090000        1.0079           0
   22335 O1   78   DMPC H14Z HAL3   0.090000        1.0079           0
   22336 O1   79   DMPC N    NTL   -0.600000       14.0067           0
   22337 O1   79   DMPC C13  CTL5  -0.350000       12.0107           0
   22338 O1   79   DMPC H13A HL     0.250000        1.0079           0
   22339 O1   79   DMPC H13B HL     0.250000        1.0079           0
   22340 O1   79   DMPC H13C HL     0.250000        1.0079           0
   22341 O1   79   DMPC C14  CTL5  -0.350000       12.0107           0
   22342 O1   79   DMPC H14A HL     0.250000        1.0079           0
   22343 O1   79   DMPC H14B HL     0.250000        1.0079           0
   22344 O1   79   DMPC H14C HL     0.250000        1.0079           0
   22345 O1   79   DMPC C15  CTL5  -0.350000       12.0107           0
   22346 O1   79   DMPC H15A HL     0.250000        1.0079           0
   22347 O1   79   DMPC H15B HL     0.250000        1.0079           0
   22348 O1   79   DMPC H15C HL     0.250000        1.0079           0
   22349 O1   79   DMPC C12  CTL2  -0.100000       12.0107           0
   22350 O1   79   DMPC H12A HL     0.250000        1.0079           0
   22351 O1   79   DMPC H12B HL     0.250000        1.0079           0
   22352 O1   79   DMPC C11  CTL2  -0.080000       12.0107           0
   22353 O1   79   DMPC H11A HAL2   0.090000        1.0079           0
   22354 O1   79   DMPC H11B HAL2   0.090000        1.0079           0
   22355 O1   79   DMPC P    PL     1.500000       30.9738           0
   22356 O1   79   DMPC O13  O2L   -0.780000       15.9994           0
   22357 O1   79   DMPC O14  O2L   -0.780000       15.9994           0
   22358 O1   79   DMPC O11  OSLP  -0.570000       15.9994           0
   22359 O1   79   DMPC O12  OSLP  -0.570000       15.9994           0
   22360 O1   79   DMPC C1   CTL2  -0.080000       12.0107           0
   22361 O1   79   DMPC HA   HAL2   0.090000        1.0079           0
   22362 O1   79   DMPC HB   HAL2   0.090000        1.0079           0
   22363 O1   79   DMPC C2   CTL1   0.170000       12.0107           0
   22364 O1   79   DMPC HS   HAL1   0.090000        1.0079           0
   22365 O1   79   DMPC O21  OSL   -0.490000       15.9994           0
   22366 O1   79   DMPC C21  CL     0.900000       12.0107           0
   22367 O1   79   DMPC O22  OBL   -0.630000       15.9994           0
   22368 O1   79   DMPC C22  CTL2  -0.220000       12.0107           0
   22369 O1   79   DMPC H2R  HAL2   0.090000        1.0079           0
   22370 O1   79   DMPC H2S  HAL2   0.090000        1.0079           0
   22371 O1   79   DMPC C3   CTL2   0.080000       12.0107           0
   22372 O1   79   DMPC HX   HAL2   0.090000        1.0079           0
   22373 O1   79   DMPC HY   HAL2   0.090000        1.0079           0
   22374 O1   79   DMPC O31  OSL   -0.490000       15.9994           0
   22375 O1   79   DMPC C31  CL     0.900000       12.0107           0
   22376 O1   79   DMPC O32  OBL   -0.630000       15.9994           0
   22377 O1   79   DMPC C32  CTL2  -0.220000       12.0107           0
   22378 O1   79   DMPC H2X  HAL2   0.090000        1.0079           0
   22379 O1   79   DMPC H2Y  HAL2   0.090000        1.0079           0
   22380 O1   79   DMPC C23  CTL2  -0.180000       12.0107           0
   22381 O1   79   DMPC H3R  HAL2   0.090000        1.0079           0
   22382 O1   79   DMPC H3S  HAL2   0.090000        1.0079           0
   22383 O1   79   DMPC C24  CTL2  -0.180000       12.0107           0
   22384 O1   79   DMPC H4R  HAL2   0.090000        1.0079           0
   22385 O1   79   DMPC H4S  HAL2   0.090000        1.0079           0
   22386 O1   79   DMPC C25  CTL2  -0.180000       12.0107           0
   22387 O1   79   DMPC H5R  HAL2   0.090000        1.0079           0
   22388 O1   79   DMPC H5S  HAL2   0.090000        1.0079           0
   22389 O1   79   DMPC C26  CTL2  -0.180000       12.0107           0
   22390 O1   79   DMPC H6R  HAL2   0.090000        1.0079           0
   22391 O1   79   DMPC H6S  HAL2   0.090000        1.0079           0
   22392 O1   79   DMPC C27  CTL2  -0.180000       12.0107           0
   22393 O1   79   DMPC H7R  HAL2   0.090000        1.0079           0
   22394 O1   79   DMPC H7S  HAL2   0.090000        1.0079           0
   22395 O1   79   DMPC C28  CTL2  -0.180000       12.0107           0
   22396 O1   79   DMPC H8R  HAL2   0.090000        1.0079           0
   22397 O1   79   DMPC H8S  HAL2   0.090000        1.0079           0
   22398 O1   79   DMPC C29  CTL2  -0.180000       12.0107           0
   22399 O1   79   DMPC H9R  HAL2   0.090000        1.0079           0
   22400 O1   79   DMPC H9S  HAL2   0.090000        1.0079           0
   22401 O1   79   DMPC C210 CTL2  -0.180000       12.0107           0
   22402 O1   79   DMPC H10R HAL2   0.090000        1.0079           0
   22403 O1   79   DMPC H10S HAL2   0.090000        1.0079           0
   22404 O1   79   DMPC C211 CTL2  -0.180000       12.0107           0
   22405 O1   79   DMPC H11R HAL2   0.090000        1.0079           0
   22406 O1   79   DMPC H11S HAL2   0.090000        1.0079           0
   22407 O1   79   DMPC C212 CTL2  -0.180000       12.0107           0
   22408 O1   79   DMPC H12R HAL2   0.090000        1.0079           0
   22409 O1   79   DMPC H12S HAL2   0.090000        1.0079           0
   22410 O1   79   DMPC C213 CTL2  -0.180000       12.0107           0
   22411 O1   79   DMPC H13R HAL2   0.090000        1.0079           0
   22412 O1   79   DMPC H13S HAL2   0.090000        1.0079           0
   22413 O1   79   DMPC C214 CTL3  -0.270000       12.0107           0
   22414 O1   79   DMPC H14R HAL3   0.090000        1.0079           0
   22415 O1   79   DMPC H14S HAL3   0.090000        1.0079           0
   22416 O1   79   DMPC H14T HAL3   0.090000        1.0079           0
   22417 O1   79   DMPC C33  CTL2  -0.180000       12.0107           0
   22418 O1   79   DMPC H3X  HAL2   0.090000        1.0079           0
   22419 O1   79   DMPC H3Y  HAL2   0.090000        1.0079           0
   22420 O1   79   DMPC C34  CTL2  -0.180000       12.0107           0
   22421 O1   79   DMPC H4X  HAL2   0.090000        1.0079           0
   22422 O1   79   DMPC H4Y  HAL2   0.090000        1.0079           0
   22423 O1   79   DMPC C35  CTL2  -0.180000       12.0107           0
   22424 O1   79   DMPC H5X  HAL2   0.090000        1.0079           0
   22425 O1   79   DMPC H5Y  HAL2   0.090000        1.0079           0
   22426 O1   79   DMPC C36  CTL2  -0.180000       12.0107           0
   22427 O1   79   DMPC H6X  HAL2   0.090000        1.0079           0
   22428 O1   79   DMPC H6Y  HAL2   0.090000        1.0079           0
   22429 O1   79   DMPC C37  CTL2  -0.180000       12.0107           0
   22430 O1   79   DMPC H7X  HAL2   0.090000        1.0079           0
   22431 O1   79   DMPC H7Y  HAL2   0.090000        1.0079           0
   22432 O1   79   DMPC C38  CTL2  -0.180000       12.0107           0
   22433 O1   79   DMPC H8X  HAL2   0.090000        1.0079           0
   22434 O1   79   DMPC H8Y  HAL2   0.090000        1.0079           0
   22435 O1   79   DMPC C39  CTL2  -0.180000       12.0107           0
   22436 O1   79   DMPC H9X  HAL2   0.090000        1.0079           0
   22437 O1   79   DMPC H9Y  HAL2   0.090000        1.0079           0
   22438 O1   79   DMPC C310 CTL2  -0.180000       12.0107           0
   22439 O1   79   DMPC H10X HAL2   0.090000        1.0079           0
   22440 O1   79   DMPC H10Y HAL2   0.090000        1.0079           0
   22441 O1   79   DMPC C311 CTL2  -0.180000       12.0107           0
   22442 O1   79   DMPC H11X HAL2   0.090000        1.0079           0
   22443 O1   79   DMPC H11Y HAL2   0.090000        1.0079           0
   22444 O1   79   DMPC C312 CTL2  -0.180000       12.0107           0
   22445 O1   79   DMPC H12X HAL2   0.090000        1.0079           0
   22446 O1   79   DMPC H12Y HAL2   0.090000        1.0079           0
   22447 O1   79   DMPC C313 CTL2  -0.180000       12.0107           0
   22448 O1   79   DMPC H13X HAL2   0.090000        1.0079           0
   22449 O1   79   DMPC H13Y HAL2   0.090000        1.0079           0
   22450 O1   79   DMPC C314 CTL3  -0.270000       12.0107           0
   22451 O1   79   DMPC H14X HAL3   0.090000        1.0079           0
   22452 O1   79   DMPC H14Y HAL3   0.090000        1.0079           0
   22453 O1   79   DMPC H14Z HAL3   0.090000        1.0079           0
   22454 O1   80   DMPC N    NTL   -0.600000       14.0067           0
   22455 O1   80   DMPC C13  CTL5  -0.350000       12.0107           0
   22456 O1   80   DMPC H13A HL     0.250000        1.0079           0
   22457 O1   80   DMPC H13B HL     0.250000        1.0079           0
   22458 O1   80   DMPC H13C HL     0.250000        1.0079           0
   22459 O1   80   DMPC C14  CTL5  -0.350000       12.0107           0
   22460 O1   80   DMPC H14A HL     0.250000        1.0079           0
   22461 O1   80   DMPC H14B HL     0.250000        1.0079           0
   22462 O1   80   DMPC H14C HL     0.250000        1.0079           0
   22463 O1   80   DMPC C15  CTL5  -0.350000       12.0107           0
   22464 O1   80   DMPC H15A HL     0.250000        1.0079           0
   22465 O1   80   DMPC H15B HL     0.250000        1.0079           0
   22466 O1   80   DMPC H15C HL     0.250000        1.0079           0
   22467 O1   80   DMPC C12  CTL2  -0.100000       12.0107           0
   22468 O1   80   DMPC H12A HL     0.250000        1.0079           0
   22469 O1   80   DMPC H12B HL     0.250000        1.0079           0
   22470 O1   80   DMPC C11  CTL2  -0.080000       12.0107           0
   22471 O1   80   DMPC H11A HAL2   0.090000        1.0079           0
   22472 O1   80   DMPC H11B HAL2   0.090000        1.0079           0
   22473 O1   80   DMPC P    PL     1.500000       30.9738           0
   22474 O1   80   DMPC O13  O2L   -0.780000       15.9994           0
   22475 O1   80   DMPC O14  O2L   -0.780000       15.9994           0
   22476 O1   80   DMPC O11  OSLP  -0.570000       15.9994           0
   22477 O1   80   DMPC O12  OSLP  -0.570000       15.9994           0
   22478 O1   80   DMPC C1   CTL2  -0.080000       12.0107           0
   22479 O1   80   DMPC HA   HAL2   0.090000        1.0079           0
   22480 O1   80   DMPC HB   HAL2   0.090000        1.0079           0
   22481 O1   80   DMPC C2   CTL1   0.170000       12.0107           0
   22482 O1   80   DMPC HS   HAL1   0.090000        1.0079           0
   22483 O1   80   DMPC O21  OSL   -0.490000       15.9994           0
   22484 O1   80   DMPC C21  CL     0.900000       12.0107           0
   22485 O1   80   DMPC O22  OBL   -0.630000       15.9994           0
   22486 O1   80   DMPC C22  CTL2  -0.220000       12.0107           0
   22487 O1   80   DMPC H2R  HAL2   0.090000        1.0079           0
   22488 O1   80   DMPC H2S  HAL2   0.090000        1.0079           0
   22489 O1   80   DMPC C3   CTL2   0.080000       12.0107           0
   22490 O1   80   DMPC HX   HAL2   0.090000        1.0079           0
   22491 O1   80   DMPC HY   HAL2   0.090000        1.0079           0
   22492 O1   80   DMPC O31  OSL   -0.490000       15.9994           0
   22493 O1   80   DMPC C31  CL     0.900000       12.0107           0
   22494 O1   80   DMPC O32  OBL   -0.630000       15.9994           0
   22495 O1   80   DMPC C32  CTL2  -0.220000       12.0107           0
   22496 O1   80   DMPC H2X  HAL2   0.090000        1.0079           0
   22497 O1   80   DMPC H2Y  HAL2   0.090000        1.0079           0
   22498 O1   80   DMPC C23  CTL2  -0.180000       12.0107           0
   22499 O1   80   DMPC H3R  HAL2   0.090000        1.0079           0
   22500 O1   80   DMPC H3S  HAL2   0.090000        1.0079           0
   22501 O1   80   DMPC C24  CTL2  -0.180000       12.0107           0
   22502 O1   80   DMPC H4R  HAL2   0.090000        1.0079           0
   22503 O1   80   DMPC H4S  HAL2   0.090000        1.0079           0
   22504 O1   80   DMPC C25  CTL2  -0.180000       12.0107           0
   22505 O1   80   DMPC H5R  HAL2   0.090000        1.0079           0
   22506 O1   80   DMPC H5S  HAL2   0.090000        1.0079           0
   22507 O1   80   DMPC C26  CTL2  -0.180000       12.0107           0
   22508 O1   80   DMPC H6R  HAL2   0.090000        1.0079           0
   22509 O1   80   DMPC H6S  HAL2   0.090000        1.0079           0
   22510 O1   80   DMPC C27  CTL2  -0.180000       12.0107           0
   22511 O1   80   DMPC H7R  HAL2   0.090000        1.0079           0
   22512 O1   80   DMPC H7S  HAL2   0.090000        1.0079           0
   22513 O1   80   DMPC C28  CTL2  -0.180000       12.0107           0
   22514 O1   80   DMPC H8R  HAL2   0.090000        1.0079           0
   22515 O1   80   DMPC H8S  HAL2   0.090000        1.0079           0
   22516 O1   80   DMPC C29  CTL2  -0.180000       12.0107           0
   22517 O1   80   DMPC H9R  HAL2   0.090000        1.0079           0
   22518 O1   80   DMPC H9S  HAL2   0.090000        1.0079           0
   22519 O1   80   DMPC C210 CTL2  -0.180000       12.0107           0
   22520 O1   80   DMPC H10R HAL2   0.090000        1.0079           0
   22521 O1   80   DMPC H10S HAL2   0.090000        1.0079           0
   22522 O1   80   DMPC C211 CTL2  -0.180000       12.0107           0
   22523 O1   80   DMPC H11R HAL2   0.090000        1.0079           0
   22524 O1   80   DMPC H11S HAL2   0.090000        1.0079           0
   22525 O1   80   DMPC C212 CTL2  -0.180000       12.0107           0
   22526 O1   80   DMPC H12R HAL2   0.090000        1.0079           0
   22527 O1   80   DMPC H12S HAL2   0.090000        1.0079           0
   22528 O1   80   DMPC C213 CTL2  -0.180000       12.0107           0
   22529 O1   80   DMPC H13R HAL2   0.090000        1.0079           0
   22530 O1   80   DMPC H13S HAL2   0.090000        1.0079           0
   22531 O1   80   DMPC C214 CTL3  -0.270000       12.0107           0
   22532 O1   80   DMPC H14R HAL3   0.090000        1.0079           0
   22533 O1   80   DMPC H14S HAL3   0.090000        1.0079           0
   22534 O1   80   DMPC H14T HAL3   0.090000        1.0079           0
   22535 O1   80   DMPC C33  CTL2  -0.180000       12.0107           0
   22536 O1   80   DMPC H3X  HAL2   0.090000        1.0079           0
   22537 O1   80   DMPC H3Y  HAL2   0.090000        1.0079           0
   22538 O1   80   DMPC C34  CTL2  -0.180000       12.0107           0
   22539 O1   80   DMPC H4X  HAL2   0.090000        1.0079           0
   22540 O1   80   DMPC H4Y  HAL2   0.090000        1.0079           0
   22541 O1   80   DMPC C35  CTL2  -0.180000       12.0107           0
   22542 O1   80   DMPC H5X  HAL2   0.090000        1.0079           0
   22543 O1   80   DMPC H5Y  HAL2   0.090000        1.0079           0
   22544 O1   80   DMPC C36  CTL2  -0.180000       12.0107           0
   22545 O1   80   DMPC H6X  HAL2   0.090000        1.0079           0
   22546 O1   80   DMPC H6Y  HAL2   0.090000        1.0079           0
   22547 O1   80   DMPC C37  CTL2  -0.180000       12.0107           0
   22548 O1   80   DMPC H7X  HAL2   0.090000        1.0079           0
   22549 O1   80   DMPC H7Y  HAL2   0.090000        1.0079           0
   22550 O1   80   DMPC C38  CTL2  -0.180000       12.0107           0
   22551 O1   80   DMPC H8X  HAL2   0.090000        1.0079           0
   22552 O1   80   DMPC H8Y  HAL2   0.090000        1.0079           0
   22553 O1   80   DMPC C39  CTL2  -0.180000       12.0107           0
   22554 O1   80   DMPC H9X  HAL2   0.090000        1.0079           0
   22555 O1   80   DMPC H9Y  HAL2   0.090000        1.0079           0
   22556 O1   80   DMPC C310 CTL2  -0.180000       12.0107           0
   22557 O1   80   DMPC H10X HAL2   0.090000        1.0079           0
   22558 O1   80   DMPC H10Y HAL2   0.090000        1.0079           0
   22559 O1   80   DMPC C311 CTL2  -0.180000       12.0107           0
   22560 O1   80   DMPC H11X HAL2   0.090000        1.0079           0
   22561 O1   80   DMPC H11Y HAL2   0.090000        1.0079           0
   22562 O1   80   DMPC C312 CTL2  -0.180000       12.0107           0
   22563 O1   80   DMPC H12X HAL2   0.090000        1.0079           0
   22564 O1   80   DMPC H12Y HAL2   0.090000        1.0079           0
   22565 O1   80   DMPC C313 CTL2  -0.180000       12.0107           0
   22566 O1   80   DMPC H13X HAL2   0.090000        1.0079           0
   22567 O1   80   DMPC H13Y HAL2   0.090000        1.0079           0
   22568 O1   80   DMPC C314 CTL3  -0.270000       12.0107           0
   22569 O1   80   DMPC H14X HAL3   0.090000        1.0079           0
   22570 O1   80   DMPC H14Y HAL3   0.090000        1.0079           0
   22571 O1   80   DMPC H14Z HAL3   0.090000        1.0079           0
   22572 O1   81   DMPC N    NTL   -0.600000       14.0067           0
   22573 O1   81   DMPC C13  CTL5  -0.350000       12.0107           0
   22574 O1   81   DMPC H13A HL     0.250000        1.0079           0
   22575 O1   81   DMPC H13B HL     0.250000        1.0079           0
   22576 O1   81   DMPC H13C HL     0.250000        1.0079           0
   22577 O1   81   DMPC C14  CTL5  -0.350000       12.0107           0
   22578 O1   81   DMPC H14A HL     0.250000        1.0079           0
   22579 O1   81   DMPC H14B HL     0.250000        1.0079           0
   22580 O1   81   DMPC H14C HL     0.250000        1.0079           0
   22581 O1   81   DMPC C15  CTL5  -0.350000       12.0107           0
   22582 O1   81   DMPC H15A HL     0.250000        1.0079           0
   22583 O1   81   DMPC H15B HL     0.250000        1.0079           0
   22584 O1   81   DMPC H15C HL     0.250000        1.0079           0
   22585 O1   81   DMPC C12  CTL2  -0.100000       12.0107           0
   22586 O1   81   DMPC H12A HL     0.250000        1.0079           0
   22587 O1   81   DMPC H12B HL     0.250000        1.0079           0
   22588 O1   81   DMPC C11  CTL2  -0.080000       12.0107           0
   22589 O1   81   DMPC H11A HAL2   0.090000        1.0079           0
   22590 O1   81   DMPC H11B HAL2   0.090000        1.0079           0
   22591 O1   81   DMPC P    PL     1.500000       30.9738           0
   22592 O1   81   DMPC O13  O2L   -0.780000       15.9994           0
   22593 O1   81   DMPC O14  O2L   -0.780000       15.9994           0
   22594 O1   81   DMPC O11  OSLP  -0.570000       15.9994           0
   22595 O1   81   DMPC O12  OSLP  -0.570000       15.9994           0
   22596 O1   81   DMPC C1   CTL2  -0.080000       12.0107           0
   22597 O1   81   DMPC HA   HAL2   0.090000        1.0079           0
   22598 O1   81   DMPC HB   HAL2   0.090000        1.0079           0
   22599 O1   81   DMPC C2   CTL1   0.170000       12.0107           0
   22600 O1   81   DMPC HS   HAL1   0.090000        1.0079           0
   22601 O1   81   DMPC O21  OSL   -0.490000       15.9994           0
   22602 O1   81   DMPC C21  CL     0.900000       12.0107           0
   22603 O1   81   DMPC O22  OBL   -0.630000       15.9994           0
   22604 O1   81   DMPC C22  CTL2  -0.220000       12.0107           0
   22605 O1   81   DMPC H2R  HAL2   0.090000        1.0079           0
   22606 O1   81   DMPC H2S  HAL2   0.090000        1.0079           0
   22607 O1   81   DMPC C3   CTL2   0.080000       12.0107           0
   22608 O1   81   DMPC HX   HAL2   0.090000        1.0079           0
   22609 O1   81   DMPC HY   HAL2   0.090000        1.0079           0
   22610 O1   81   DMPC O31  OSL   -0.490000       15.9994           0
   22611 O1   81   DMPC C31  CL     0.900000       12.0107           0
   22612 O1   81   DMPC O32  OBL   -0.630000       15.9994           0
   22613 O1   81   DMPC C32  CTL2  -0.220000       12.0107           0
   22614 O1   81   DMPC H2X  HAL2   0.090000        1.0079           0
   22615 O1   81   DMPC H2Y  HAL2   0.090000        1.0079           0
   22616 O1   81   DMPC C23  CTL2  -0.180000       12.0107           0
   22617 O1   81   DMPC H3R  HAL2   0.090000        1.0079           0
   22618 O1   81   DMPC H3S  HAL2   0.090000        1.0079           0
   22619 O1   81   DMPC C24  CTL2  -0.180000       12.0107           0
   22620 O1   81   DMPC H4R  HAL2   0.090000        1.0079           0
   22621 O1   81   DMPC H4S  HAL2   0.090000        1.0079           0
   22622 O1   81   DMPC C25  CTL2  -0.180000       12.0107           0
   22623 O1   81   DMPC H5R  HAL2   0.090000        1.0079           0
   22624 O1   81   DMPC H5S  HAL2   0.090000        1.0079           0
   22625 O1   81   DMPC C26  CTL2  -0.180000       12.0107           0
   22626 O1   81   DMPC H6R  HAL2   0.090000        1.0079           0
   22627 O1   81   DMPC H6S  HAL2   0.090000        1.0079           0
   22628 O1   81   DMPC C27  CTL2  -0.180000       12.0107           0
   22629 O1   81   DMPC H7R  HAL2   0.090000        1.0079           0
   22630 O1   81   DMPC H7S  HAL2   0.090000        1.0079           0
   22631 O1   81   DMPC C28  CTL2  -0.180000       12.0107           0
   22632 O1   81   DMPC H8R  HAL2   0.090000        1.0079           0
   22633 O1   81   DMPC H8S  HAL2   0.090000        1.0079           0
   22634 O1   81   DMPC C29  CTL2  -0.180000       12.0107           0
   22635 O1   81   DMPC H9R  HAL2   0.090000        1.0079           0
   22636 O1   81   DMPC H9S  HAL2   0.090000        1.0079           0
   22637 O1   81   DMPC C210 CTL2  -0.180000       12.0107           0
   22638 O1   81   DMPC H10R HAL2   0.090000        1.0079           0
   22639 O1   81   DMPC H10S HAL2   0.090000        1.0079           0
   22640 O1   81   DMPC C211 CTL2  -0.180000       12.0107           0
   22641 O1   81   DMPC H11R HAL2   0.090000        1.0079           0
   22642 O1   81   DMPC H11S HAL2   0.090000        1.0079           0
   22643 O1   81   DMPC C212 CTL2  -0.180000       12.0107           0
   22644 O1   81   DMPC H12R HAL2   0.090000        1.0079           0
   22645 O1   81   DMPC H12S HAL2   0.090000        1.0079           0
   22646 O1   81   DMPC C213 CTL2  -0.180000       12.0107           0
   22647 O1   81   DMPC H13R HAL2   0.090000        1.0079           0
   22648 O1   81   DMPC H13S HAL2   0.090000        1.0079           0
   22649 O1   81   DMPC C214 CTL3  -0.270000       12.0107           0
   22650 O1   81   DMPC H14R HAL3   0.090000        1.0079           0
   22651 O1   81   DMPC H14S HAL3   0.090000        1.0079           0
   22652 O1   81   DMPC H14T HAL3   0.090000        1.0079           0
   22653 O1   81   DMPC C33  CTL2  -0.180000       12.0107           0
   22654 O1   81   DMPC H3X  HAL2   0.090000        1.0079           0
   22655 O1   81   DMPC H3Y  HAL2   0.090000        1.0079           0
   22656 O1   81   DMPC C34  CTL2  -0.180000       12.0107           0
   22657 O1   81   DMPC H4X  HAL2   0.090000        1.0079           0
   22658 O1   81   DMPC H4Y  HAL2   0.090000        1.0079           0
   22659 O1   81   DMPC C35  CTL2  -0.180000       12.0107           0
   22660 O1   81   DMPC H5X  HAL2   0.090000        1.0079           0
   22661 O1   81   DMPC H5Y  HAL2   0.090000        1.0079           0
   22662 O1   81   DMPC C36  CTL2  -0.180000       12.0107           0
   22663 O1   81   DMPC H6X  HAL2   0.090000        1.0079           0
   22664 O1   81   DMPC H6Y  HAL2   0.090000        1.0079           0
   22665 O1   81   DMPC C37  CTL2  -0.180000       12.0107           0
   22666 O1   81   DMPC H7X  HAL2   0.090000        1.0079           0
   22667 O1   81   DMPC H7Y  HAL2   0.090000        1.0079           0
   22668 O1   81   DMPC C38  CTL2  -0.180000       12.0107           0
   22669 O1   81   DMPC H8X  HAL2   0.090000        1.0079           0
   22670 O1   81   DMPC H8Y  HAL2   0.090000        1.0079           0
   22671 O1   81   DMPC C39  CTL2  -0.180000       12.0107           0
   22672 O1   81   DMPC H9X  HAL2   0.090000        1.0079           0
   22673 O1   81   DMPC H9Y  HAL2   0.090000        1.0079           0
   22674 O1   81   DMPC C310 CTL2  -0.180000       12.0107           0
   22675 O1   81   DMPC H10X HAL2   0.090000        1.0079           0
   22676 O1   81   DMPC H10Y HAL2   0.090000        1.0079           0
   22677 O1   81   DMPC C311 CTL2  -0.180000       12.0107           0
   22678 O1   81   DMPC H11X HAL2   0.090000        1.0079           0
   22679 O1   81   DMPC H11Y HAL2   0.090000        1.0079           0
   22680 O1   81   DMPC C312 CTL2  -0.180000       12.0107           0
   22681 O1   81   DMPC H12X HAL2   0.090000        1.0079           0
   22682 O1   81   DMPC H12Y HAL2   0.090000        1.0079           0
   22683 O1   81   DMPC C313 CTL2  -0.180000       12.0107           0
   22684 O1   81   DMPC H13X HAL2   0.090000        1.0079           0
   22685 O1   81   DMPC H13Y HAL2   0.090000        1.0079           0
   22686 O1   81   DMPC C314 CTL3  -0.270000       12.0107           0
   22687 O1   81   DMPC H14X HAL3   0.090000        1.0079           0
   22688 O1   81   DMPC H14Y HAL3   0.090000        1.0079           0
   22689 O1   81   DMPC H14Z HAL3   0.090000        1.0079           0
   22690 O1   82   DMPC N    NTL   -0.600000       14.0067           0
   22691 O1   82   DMPC C13  CTL5  -0.350000       12.0107           0
   22692 O1   82   DMPC H13A HL     0.250000        1.0079           0
   22693 O1   82   DMPC H13B HL     0.250000        1.0079           0
   22694 O1   82   DMPC H13C HL     0.250000        1.0079           0
   22695 O1   82   DMPC C14  CTL5  -0.350000       12.0107           0
   22696 O1   82   DMPC H14A HL     0.250000        1.0079           0
   22697 O1   82   DMPC H14B HL     0.250000        1.0079           0
   22698 O1   82   DMPC H14C HL     0.250000        1.0079           0
   22699 O1   82   DMPC C15  CTL5  -0.350000       12.0107           0
   22700 O1   82   DMPC H15A HL     0.250000        1.0079           0
   22701 O1   82   DMPC H15B HL     0.250000        1.0079           0
   22702 O1   82   DMPC H15C HL     0.250000        1.0079           0
   22703 O1   82   DMPC C12  CTL2  -0.100000       12.0107           0
   22704 O1   82   DMPC H12A HL     0.250000        1.0079           0
   22705 O1   82   DMPC H12B HL     0.250000        1.0079           0
   22706 O1   82   DMPC C11  CTL2  -0.080000       12.0107           0
   22707 O1   82   DMPC H11A HAL2   0.090000        1.0079           0
   22708 O1   82   DMPC H11B HAL2   0.090000        1.0079           0
   22709 O1   82   DMPC P    PL     1.500000       30.9738           0
   22710 O1   82   DMPC O13  O2L   -0.780000       15.9994           0
   22711 O1   82   DMPC O14  O2L   -0.780000       15.9994           0
   22712 O1   82   DMPC O11  OSLP  -0.570000       15.9994           0
   22713 O1   82   DMPC O12  OSLP  -0.570000       15.9994           0
   22714 O1   82   DMPC C1   CTL2  -0.080000       12.0107           0
   22715 O1   82   DMPC HA   HAL2   0.090000        1.0079           0
   22716 O1   82   DMPC HB   HAL2   0.090000        1.0079           0
   22717 O1   82   DMPC C2   CTL1   0.170000       12.0107           0
   22718 O1   82   DMPC HS   HAL1   0.090000        1.0079           0
   22719 O1   82   DMPC O21  OSL   -0.490000       15.9994           0
   22720 O1   82   DMPC C21  CL     0.900000       12.0107           0
   22721 O1   82   DMPC O22  OBL   -0.630000       15.9994           0
   22722 O1   82   DMPC C22  CTL2  -0.220000       12.0107           0
   22723 O1   82   DMPC H2R  HAL2   0.090000        1.0079           0
   22724 O1   82   DMPC H2S  HAL2   0.090000        1.0079           0
   22725 O1   82   DMPC C3   CTL2   0.080000       12.0107           0
   22726 O1   82   DMPC HX   HAL2   0.090000        1.0079           0
   22727 O1   82   DMPC HY   HAL2   0.090000        1.0079           0
   22728 O1   82   DMPC O31  OSL   -0.490000       15.9994           0
   22729 O1   82   DMPC C31  CL     0.900000       12.0107           0
   22730 O1   82   DMPC O32  OBL   -0.630000       15.9994           0
   22731 O1   82   DMPC C32  CTL2  -0.220000       12.0107           0
   22732 O1   82   DMPC H2X  HAL2   0.090000        1.0079           0
   22733 O1   82   DMPC H2Y  HAL2   0.090000        1.0079           0
   22734 O1   82   DMPC C23  CTL2  -0.180000       12.0107           0
   22735 O1   82   DMPC H3R  HAL2   0.090000        1.0079           0
   22736 O1   82   DMPC H3S  HAL2   0.090000        1.0079           0
   22737 O1   82   DMPC C24  CTL2  -0.180000       12.0107           0
   22738 O1   82   DMPC H4R  HAL2   0.090000        1.0079           0
   22739 O1   82   DMPC H4S  HAL2   0.090000        1.0079           0
   22740 O1   82   DMPC C25  CTL2  -0.180000       12.0107           0
   22741 O1   82   DMPC H5R  HAL2   0.090000        1.0079           0
   22742 O1   82   DMPC H5S  HAL2   0.090000        1.0079           0
   22743 O1   82   DMPC C26  CTL2  -0.180000       12.0107           0
   22744 O1   82   DMPC H6R  HAL2   0.090000        1.0079           0
   22745 O1   82   DMPC H6S  HAL2   0.090000        1.0079           0
   22746 O1   82   DMPC C27  CTL2  -0.180000       12.0107           0
   22747 O1   82   DMPC H7R  HAL2   0.090000        1.0079           0
   22748 O1   82   DMPC H7S  HAL2   0.090000        1.0079           0
   22749 O1   82   DMPC C28  CTL2  -0.180000       12.0107           0
   22750 O1   82   DMPC H8R  HAL2   0.090000        1.0079           0
   22751 O1   82   DMPC H8S  HAL2   0.090000        1.0079           0
   22752 O1   82   DMPC C29  CTL2  -0.180000       12.0107           0
   22753 O1   82   DMPC H9R  HAL2   0.090000        1.0079           0
   22754 O1   82   DMPC H9S  HAL2   0.090000        1.0079           0
   22755 O1   82   DMPC C210 CTL2  -0.180000       12.0107           0
   22756 O1   82   DMPC H10R HAL2   0.090000        1.0079           0
   22757 O1   82   DMPC H10S HAL2   0.090000        1.0079           0
   22758 O1   82   DMPC C211 CTL2  -0.180000       12.0107           0
   22759 O1   82   DMPC H11R HAL2   0.090000        1.0079           0
   22760 O1   82   DMPC H11S HAL2   0.090000        1.0079           0
   22761 O1   82   DMPC C212 CTL2  -0.180000       12.0107           0
   22762 O1   82   DMPC H12R HAL2   0.090000        1.0079           0
   22763 O1   82   DMPC H12S HAL2   0.090000        1.0079           0
   22764 O1   82   DMPC C213 CTL2  -0.180000       12.0107           0
   22765 O1   82   DMPC H13R HAL2   0.090000        1.0079           0
   22766 O1   82   DMPC H13S HAL2   0.090000        1.0079           0
   22767 O1   82   DMPC C214 CTL3  -0.270000       12.0107           0
   22768 O1   82   DMPC H14R HAL3   0.090000        1.0079           0
   22769 O1   82   DMPC H14S HAL3   0.090000        1.0079           0
   22770 O1   82   DMPC H14T HAL3   0.090000        1.0079           0
   22771 O1   82   DMPC C33  CTL2  -0.180000       12.0107           0
   22772 O1   82   DMPC H3X  HAL2   0.090000        1.0079           0
   22773 O1   82   DMPC H3Y  HAL2   0.090000        1.0079           0
   22774 O1   82   DMPC C34  CTL2  -0.180000       12.0107           0
   22775 O1   82   DMPC H4X  HAL2   0.090000        1.0079           0
   22776 O1   82   DMPC H4Y  HAL2   0.090000        1.0079           0
   22777 O1   82   DMPC C35  CTL2  -0.180000       12.0107           0
   22778 O1   82   DMPC H5X  HAL2   0.090000        1.0079           0
   22779 O1   82   DMPC H5Y  HAL2   0.090000        1.0079           0
   22780 O1   82   DMPC C36  CTL2  -0.180000       12.0107           0
   22781 O1   82   DMPC H6X  HAL2   0.090000        1.0079           0
   22782 O1   82   DMPC H6Y  HAL2   0.090000        1.0079           0
   22783 O1   82   DMPC C37  CTL2  -0.180000       12.0107           0
   22784 O1   82   DMPC H7X  HAL2   0.090000        1.0079           0
   22785 O1   82   DMPC H7Y  HAL2   0.090000        1.0079           0
   22786 O1   82   DMPC C38  CTL2  -0.180000       12.0107           0
   22787 O1   82   DMPC H8X  HAL2   0.090000        1.0079           0
   22788 O1   82   DMPC H8Y  HAL2   0.090000        1.0079           0
   22789 O1   82   DMPC C39  CTL2  -0.180000       12.0107           0
   22790 O1   82   DMPC H9X  HAL2   0.090000        1.0079           0
   22791 O1   82   DMPC H9Y  HAL2   0.090000        1.0079           0
   22792 O1   82   DMPC C310 CTL2  -0.180000       12.0107           0
   22793 O1   82   DMPC H10X HAL2   0.090000        1.0079           0
   22794 O1   82   DMPC H10Y HAL2   0.090000        1.0079           0
   22795 O1   82   DMPC C311 CTL2  -0.180000       12.0107           0
   22796 O1   82   DMPC H11X HAL2   0.090000        1.0079           0
   22797 O1   82   DMPC H11Y HAL2   0.090000        1.0079           0
   22798 O1   82   DMPC C312 CTL2  -0.180000       12.0107           0
   22799 O1   82   DMPC H12X HAL2   0.090000        1.0079           0
   22800 O1   82   DMPC H12Y HAL2   0.090000        1.0079           0
   22801 O1   82   DMPC C313 CTL2  -0.180000       12.0107           0
   22802 O1   82   DMPC H13X HAL2   0.090000        1.0079           0
   22803 O1   82   DMPC H13Y HAL2   0.090000        1.0079           0
   22804 O1   82   DMPC C314 CTL3  -0.270000       12.0107           0
   22805 O1   82   DMPC H14X HAL3   0.090000        1.0079           0
   22806 O1   82   DMPC H14Y HAL3   0.090000        1.0079           0
   22807 O1   82   DMPC H14Z HAL3   0.090000        1.0079           0
   22808 O1   83   DMPC N    NTL   -0.600000       14.0067           0
   22809 O1   83   DMPC C13  CTL5  -0.350000       12.0107           0
   22810 O1   83   DMPC H13A HL     0.250000        1.0079           0
   22811 O1   83   DMPC H13B HL     0.250000        1.0079           0
   22812 O1   83   DMPC H13C HL     0.250000        1.0079           0
   22813 O1   83   DMPC C14  CTL5  -0.350000       12.0107           0
   22814 O1   83   DMPC H14A HL     0.250000        1.0079           0
   22815 O1   83   DMPC H14B HL     0.250000        1.0079           0
   22816 O1   83   DMPC H14C HL     0.250000        1.0079           0
   22817 O1   83   DMPC C15  CTL5  -0.350000       12.0107           0
   22818 O1   83   DMPC H15A HL     0.250000        1.0079           0
   22819 O1   83   DMPC H15B HL     0.250000        1.0079           0
   22820 O1   83   DMPC H15C HL     0.250000        1.0079           0
   22821 O1   83   DMPC C12  CTL2  -0.100000       12.0107           0
   22822 O1   83   DMPC H12A HL     0.250000        1.0079           0
   22823 O1   83   DMPC H12B HL     0.250000        1.0079           0
   22824 O1   83   DMPC C11  CTL2  -0.080000       12.0107           0
   22825 O1   83   DMPC H11A HAL2   0.090000        1.0079           0
   22826 O1   83   DMPC H11B HAL2   0.090000        1.0079           0
   22827 O1   83   DMPC P    PL     1.500000       30.9738           0
   22828 O1   83   DMPC O13  O2L   -0.780000       15.9994           0
   22829 O1   83   DMPC O14  O2L   -0.780000       15.9994           0
   22830 O1   83   DMPC O11  OSLP  -0.570000       15.9994           0
   22831 O1   83   DMPC O12  OSLP  -0.570000       15.9994           0
   22832 O1   83   DMPC C1   CTL2  -0.080000       12.0107           0
   22833 O1   83   DMPC HA   HAL2   0.090000        1.0079           0
   22834 O1   83   DMPC HB   HAL2   0.090000        1.0079           0
   22835 O1   83   DMPC C2   CTL1   0.170000       12.0107           0
   22836 O1   83   DMPC HS   HAL1   0.090000        1.0079           0
   22837 O1   83   DMPC O21  OSL   -0.490000       15.9994           0
   22838 O1   83   DMPC C21  CL     0.900000       12.0107           0
   22839 O1   83   DMPC O22  OBL   -0.630000       15.9994           0
   22840 O1   83   DMPC C22  CTL2  -0.220000       12.0107           0
   22841 O1   83   DMPC H2R  HAL2   0.090000        1.0079           0
   22842 O1   83   DMPC H2S  HAL2   0.090000        1.0079           0
   22843 O1   83   DMPC C3   CTL2   0.080000       12.0107           0
   22844 O1   83   DMPC HX   HAL2   0.090000        1.0079           0
   22845 O1   83   DMPC HY   HAL2   0.090000        1.0079           0
   22846 O1   83   DMPC O31  OSL   -0.490000       15.9994           0
   22847 O1   83   DMPC C31  CL     0.900000       12.0107           0
   22848 O1   83   DMPC O32  OBL   -0.630000       15.9994           0
   22849 O1   83   DMPC C32  CTL2  -0.220000       12.0107           0
   22850 O1   83   DMPC H2X  HAL2   0.090000        1.0079           0
   22851 O1   83   DMPC H2Y  HAL2   0.090000        1.0079           0
   22852 O1   83   DMPC C23  CTL2  -0.180000       12.0107           0
   22853 O1   83   DMPC H3R  HAL2   0.090000        1.0079           0
   22854 O1   83   DMPC H3S  HAL2   0.090000        1.0079           0
   22855 O1   83   DMPC C24  CTL2  -0.180000       12.0107           0
   22856 O1   83   DMPC H4R  HAL2   0.090000        1.0079           0
   22857 O1   83   DMPC H4S  HAL2   0.090000        1.0079           0
   22858 O1   83   DMPC C25  CTL2  -0.180000       12.0107           0
   22859 O1   83   DMPC H5R  HAL2   0.090000        1.0079           0
   22860 O1   83   DMPC H5S  HAL2   0.090000        1.0079           0
   22861 O1   83   DMPC C26  CTL2  -0.180000       12.0107           0
   22862 O1   83   DMPC H6R  HAL2   0.090000        1.0079           0
   22863 O1   83   DMPC H6S  HAL2   0.090000        1.0079           0
   22864 O1   83   DMPC C27  CTL2  -0.180000       12.0107           0
   22865 O1   83   DMPC H7R  HAL2   0.090000        1.0079           0
   22866 O1   83   DMPC H7S  HAL2   0.090000        1.0079           0
   22867 O1   83   DMPC C28  CTL2  -0.180000       12.0107           0
   22868 O1   83   DMPC H8R  HAL2   0.090000        1.0079           0
   22869 O1   83   DMPC H8S  HAL2   0.090000        1.0079           0
   22870 O1   83   DMPC C29  CTL2  -0.180000       12.0107           0
   22871 O1   83   DMPC H9R  HAL2   0.090000        1.0079           0
   22872 O1   83   DMPC H9S  HAL2   0.090000        1.0079           0
   22873 O1   83   DMPC C210 CTL2  -0.180000       12.0107           0
   22874 O1   83   DMPC H10R HAL2   0.090000        1.0079           0
   22875 O1   83   DMPC H10S HAL2   0.090000        1.0079           0
   22876 O1   83   DMPC C211 CTL2  -0.180000       12.0107           0
   22877 O1   83   DMPC H11R HAL2   0.090000        1.0079           0
   22878 O1   83   DMPC H11S HAL2   0.090000        1.0079           0
   22879 O1   83   DMPC C212 CTL2  -0.180000       12.0107           0
   22880 O1   83   DMPC H12R HAL2   0.090000        1.0079           0
   22881 O1   83   DMPC H12S HAL2   0.090000        1.0079           0
   22882 O1   83   DMPC C213 CTL2  -0.180000       12.0107           0
   22883 O1   83   DMPC H13R HAL2   0.090000        1.0079           0
   22884 O1   83   DMPC H13S HAL2   0.090000        1.0079           0
   22885 O1   83   DMPC C214 CTL3  -0.270000       12.0107           0
   22886 O1   83   DMPC H14R HAL3   0.090000        1.0079           0
   22887 O1   83   DMPC H14S HAL3   0.090000        1.0079           0
   22888 O1   83   DMPC H14T HAL3   0.090000        1.0079           0
   22889 O1   83   DMPC C33  CTL2  -0.180000       12.0107           0
   22890 O1   83   DMPC H3X  HAL2   0.090000        1.0079           0
   22891 O1   83   DMPC H3Y  HAL2   0.090000        1.0079           0
   22892 O1   83   DMPC C34  CTL2  -0.180000       12.0107           0
   22893 O1   83   DMPC H4X  HAL2   0.090000        1.0079           0
   22894 O1   83   DMPC H4Y  HAL2   0.090000        1.0079           0
   22895 O1   83   DMPC C35  CTL2  -0.180000       12.0107           0
   22896 O1   83   DMPC H5X  HAL2   0.090000        1.0079           0
   22897 O1   83   DMPC H5Y  HAL2   0.090000        1.0079           0
   22898 O1   83   DMPC C36  CTL2  -0.180000       12.0107           0
   22899 O1   83   DMPC H6X  HAL2   0.090000        1.0079           0
   22900 O1   83   DMPC H6Y  HAL2   0.090000        1.0079           0
   22901 O1   83   DMPC C37  CTL2  -0.180000       12.0107           0
   22902 O1   83   DMPC H7X  HAL2   0.090000        1.0079           0
   22903 O1   83   DMPC H7Y  HAL2   0.090000        1.0079           0
   22904 O1   83   DMPC C38  CTL2  -0.180000       12.0107           0
   22905 O1   83   DMPC H8X  HAL2   0.090000        1.0079           0
   22906 O1   83   DMPC H8Y  HAL2   0.090000        1.0079           0
   22907 O1   83   DMPC C39  CTL2  -0.180000       12.0107           0
   22908 O1   83   DMPC H9X  HAL2   0.090000        1.0079           0
   22909 O1   83   DMPC H9Y  HAL2   0.090000        1.0079           0
   22910 O1   83   DMPC C310 CTL2  -0.180000       12.0107           0
   22911 O1   83   DMPC H10X HAL2   0.090000        1.0079           0
   22912 O1   83   DMPC H10Y HAL2   0.090000        1.0079           0
   22913 O1   83   DMPC C311 CTL2  -0.180000       12.0107           0
   22914 O1   83   DMPC H11X HAL2   0.090000        1.0079           0
   22915 O1   83   DMPC H11Y HAL2   0.090000        1.0079           0
   22916 O1   83   DMPC C312 CTL2  -0.180000       12.0107           0
   22917 O1   83   DMPC H12X HAL2   0.090000        1.0079           0
   22918 O1   83   DMPC H12Y HAL2   0.090000        1.0079           0
   22919 O1   83   DMPC C313 CTL2  -0.180000       12.0107           0
   22920 O1   83   DMPC H13X HAL2   0.090000        1.0079           0
   22921 O1   83   DMPC H13Y HAL2   0.090000        1.0079           0
   22922 O1   83   DMPC C314 CTL3  -0.270000       12.0107           0
   22923 O1   83   DMPC H14X HAL3   0.090000        1.0079           0
   22924 O1   83   DMPC H14Y HAL3   0.090000        1.0079           0
   22925 O1   83   DMPC H14Z HAL3   0.090000        1.0079           0
   22926 O1   84   DMPC N    NTL   -0.600000       14.0067           0
   22927 O1   84   DMPC C13  CTL5  -0.350000       12.0107           0
   22928 O1   84   DMPC H13A HL     0.250000        1.0079           0
   22929 O1   84   DMPC H13B HL     0.250000        1.0079           0
   22930 O1   84   DMPC H13C HL     0.250000        1.0079           0
   22931 O1   84   DMPC C14  CTL5  -0.350000       12.0107           0
   22932 O1   84   DMPC H14A HL     0.250000        1.0079           0
   22933 O1   84   DMPC H14B HL     0.250000        1.0079           0
   22934 O1   84   DMPC H14C HL     0.250000        1.0079           0
   22935 O1   84   DMPC C15  CTL5  -0.350000       12.0107           0
   22936 O1   84   DMPC H15A HL     0.250000        1.0079           0
   22937 O1   84   DMPC H15B HL     0.250000        1.0079           0
   22938 O1   84   DMPC H15C HL     0.250000        1.0079           0
   22939 O1   84   DMPC C12  CTL2  -0.100000       12.0107           0
   22940 O1   84   DMPC H12A HL     0.250000        1.0079           0
   22941 O1   84   DMPC H12B HL     0.250000        1.0079           0
   22942 O1   84   DMPC C11  CTL2  -0.080000       12.0107           0
   22943 O1   84   DMPC H11A HAL2   0.090000        1.0079           0
   22944 O1   84   DMPC H11B HAL2   0.090000        1.0079           0
   22945 O1   84   DMPC P    PL     1.500000       30.9738           0
   22946 O1   84   DMPC O13  O2L   -0.780000       15.9994           0
   22947 O1   84   DMPC O14  O2L   -0.780000       15.9994           0
   22948 O1   84   DMPC O11  OSLP  -0.570000       15.9994           0
   22949 O1   84   DMPC O12  OSLP  -0.570000       15.9994           0
   22950 O1   84   DMPC C1   CTL2  -0.080000       12.0107           0
   22951 O1   84   DMPC HA   HAL2   0.090000        1.0079           0
   22952 O1   84   DMPC HB   HAL2   0.090000        1.0079           0
   22953 O1   84   DMPC C2   CTL1   0.170000       12.0107           0
   22954 O1   84   DMPC HS   HAL1   0.090000        1.0079           0
   22955 O1   84   DMPC O21  OSL   -0.490000       15.9994           0
   22956 O1   84   DMPC C21  CL     0.900000       12.0107           0
   22957 O1   84   DMPC O22  OBL   -0.630000       15.9994           0
   22958 O1   84   DMPC C22  CTL2  -0.220000       12.0107           0
   22959 O1   84   DMPC H2R  HAL2   0.090000        1.0079           0
   22960 O1   84   DMPC H2S  HAL2   0.090000        1.0079           0
   22961 O1   84   DMPC C3   CTL2   0.080000       12.0107           0
   22962 O1   84   DMPC HX   HAL2   0.090000        1.0079           0
   22963 O1   84   DMPC HY   HAL2   0.090000        1.0079           0
   22964 O1   84   DMPC O31  OSL   -0.490000       15.9994           0
   22965 O1   84   DMPC C31  CL     0.900000       12.0107           0
   22966 O1   84   DMPC O32  OBL   -0.630000       15.9994           0
   22967 O1   84   DMPC C32  CTL2  -0.220000       12.0107           0
   22968 O1   84   DMPC H2X  HAL2   0.090000        1.0079           0
   22969 O1   84   DMPC H2Y  HAL2   0.090000        1.0079           0
   22970 O1   84   DMPC C23  CTL2  -0.180000       12.0107           0
   22971 O1   84   DMPC H3R  HAL2   0.090000        1.0079           0
   22972 O1   84   DMPC H3S  HAL2   0.090000        1.0079           0
   22973 O1   84   DMPC C24  CTL2  -0.180000       12.0107           0
   22974 O1   84   DMPC H4R  HAL2   0.090000        1.0079           0
   22975 O1   84   DMPC H4S  HAL2   0.090000        1.0079           0
   22976 O1   84   DMPC C25  CTL2  -0.180000       12.0107           0
   22977 O1   84   DMPC H5R  HAL2   0.090000        1.0079           0
   22978 O1   84   DMPC H5S  HAL2   0.090000        1.0079           0
   22979 O1   84   DMPC C26  CTL2  -0.180000       12.0107           0
   22980 O1   84   DMPC H6R  HAL2   0.090000        1.0079           0
   22981 O1   84   DMPC H6S  HAL2   0.090000        1.0079           0
   22982 O1   84   DMPC C27  CTL2  -0.180000       12.0107           0
   22983 O1   84   DMPC H7R  HAL2   0.090000        1.0079           0
   22984 O1   84   DMPC H7S  HAL2   0.090000        1.0079           0
   22985 O1   84   DMPC C28  CTL2  -0.180000       12.0107           0
   22986 O1   84   DMPC H8R  HAL2   0.090000        1.0079           0
   22987 O1   84   DMPC H8S  HAL2   0.090000        1.0079           0
   22988 O1   84   DMPC C29  CTL2  -0.180000       12.0107           0
   22989 O1   84   DMPC H9R  HAL2   0.090000        1.0079           0
   22990 O1   84   DMPC H9S  HAL2   0.090000        1.0079           0
   22991 O1   84   DMPC C210 CTL2  -0.180000       12.0107           0
   22992 O1   84   DMPC H10R HAL2   0.090000        1.0079           0
   22993 O1   84   DMPC H10S HAL2   0.090000        1.0079           0
   22994 O1   84   DMPC C211 CTL2  -0.180000       12.0107           0
   22995 O1   84   DMPC H11R HAL2   0.090000        1.0079           0
   22996 O1   84   DMPC H11S HAL2   0.090000        1.0079           0
   22997 O1   84   DMPC C212 CTL2  -0.180000       12.0107           0
   22998 O1   84   DMPC H12R HAL2   0.090000        1.0079           0
   22999 O1   84   DMPC H12S HAL2   0.090000        1.0079           0
   23000 O1   84   DMPC C213 CTL2  -0.180000       12.0107           0
   23001 O1   84   DMPC H13R HAL2   0.090000        1.0079           0
   23002 O1   84   DMPC H13S HAL2   0.090000        1.0079           0
   23003 O1   84   DMPC C214 CTL3  -0.270000       12.0107           0
   23004 O1   84   DMPC H14R HAL3   0.090000        1.0079           0
   23005 O1   84   DMPC H14S HAL3   0.090000        1.0079           0
   23006 O1   84   DMPC H14T HAL3   0.090000        1.0079           0
   23007 O1   84   DMPC C33  CTL2  -0.180000       12.0107           0
   23008 O1   84   DMPC H3X  HAL2   0.090000        1.0079           0
   23009 O1   84   DMPC H3Y  HAL2   0.090000        1.0079           0
   23010 O1   84   DMPC C34  CTL2  -0.180000       12.0107           0
   23011 O1   84   DMPC H4X  HAL2   0.090000        1.0079           0
   23012 O1   84   DMPC H4Y  HAL2   0.090000        1.0079           0
   23013 O1   84   DMPC C35  CTL2  -0.180000       12.0107           0
   23014 O1   84   DMPC H5X  HAL2   0.090000        1.0079           0
   23015 O1   84   DMPC H5Y  HAL2   0.090000        1.0079           0
   23016 O1   84   DMPC C36  CTL2  -0.180000       12.0107           0
   23017 O1   84   DMPC H6X  HAL2   0.090000        1.0079           0
   23018 O1   84   DMPC H6Y  HAL2   0.090000        1.0079           0
   23019 O1   84   DMPC C37  CTL2  -0.180000       12.0107           0
   23020 O1   84   DMPC H7X  HAL2   0.090000        1.0079           0
   23021 O1   84   DMPC H7Y  HAL2   0.090000        1.0079           0
   23022 O1   84   DMPC C38  CTL2  -0.180000       12.0107           0
   23023 O1   84   DMPC H8X  HAL2   0.090000        1.0079           0
   23024 O1   84   DMPC H8Y  HAL2   0.090000        1.0079           0
   23025 O1   84   DMPC C39  CTL2  -0.180000       12.0107           0
   23026 O1   84   DMPC H9X  HAL2   0.090000        1.0079           0
   23027 O1   84   DMPC H9Y  HAL2   0.090000        1.0079           0
   23028 O1   84   DMPC C310 CTL2  -0.180000       12.0107           0
   23029 O1   84   DMPC H10X HAL2   0.090000        1.0079           0
   23030 O1   84   DMPC H10Y HAL2   0.090000        1.0079           0
   23031 O1   84   DMPC C311 CTL2  -0.180000       12.0107           0
   23032 O1   84   DMPC H11X HAL2   0.090000        1.0079           0
   23033 O1   84   DMPC H11Y HAL2   0.090000        1.0079           0
   23034 O1   84   DMPC C312 CTL2  -0.180000       12.0107           0
   23035 O1   84   DMPC H12X HAL2   0.090000        1.0079           0
   23036 O1   84   DMPC H12Y HAL2   0.090000        1.0079           0
   23037 O1   84   DMPC C313 CTL2  -0.180000       12.0107           0
   23038 O1   84   DMPC H13X HAL2   0.090000        1.0079           0
   23039 O1   84   DMPC H13Y HAL2   0.090000        1.0079           0
   23040 O1   84   DMPC C314 CTL3  -0.270000       12.0107           0
   23041 O1   84   DMPC H14X HAL3   0.090000        1.0079           0
   23042 O1   84   DMPC H14Y HAL3   0.090000        1.0079           0
   23043 O1   84   DMPC H14Z HAL3   0.090000        1.0079           0
   23044 O1   85   DMPC N    NTL   -0.600000       14.0067           0
   23045 O1   85   DMPC C13  CTL5  -0.350000       12.0107           0
   23046 O1   85   DMPC H13A HL     0.250000        1.0079           0
   23047 O1   85   DMPC H13B HL     0.250000        1.0079           0
   23048 O1   85   DMPC H13C HL     0.250000        1.0079           0
   23049 O1   85   DMPC C14  CTL5  -0.350000       12.0107           0
   23050 O1   85   DMPC H14A HL     0.250000        1.0079           0
   23051 O1   85   DMPC H14B HL     0.250000        1.0079           0
   23052 O1   85   DMPC H14C HL     0.250000        1.0079           0
   23053 O1   85   DMPC C15  CTL5  -0.350000       12.0107           0
   23054 O1   85   DMPC H15A HL     0.250000        1.0079           0
   23055 O1   85   DMPC H15B HL     0.250000        1.0079           0
   23056 O1   85   DMPC H15C HL     0.250000        1.0079           0
   23057 O1   85   DMPC C12  CTL2  -0.100000       12.0107           0
   23058 O1   85   DMPC H12A HL     0.250000        1.0079           0
   23059 O1   85   DMPC H12B HL     0.250000        1.0079           0
   23060 O1   85   DMPC C11  CTL2  -0.080000       12.0107           0
   23061 O1   85   DMPC H11A HAL2   0.090000        1.0079           0
   23062 O1   85   DMPC H11B HAL2   0.090000        1.0079           0
   23063 O1   85   DMPC P    PL     1.500000       30.9738           0
   23064 O1   85   DMPC O13  O2L   -0.780000       15.9994           0
   23065 O1   85   DMPC O14  O2L   -0.780000       15.9994           0
   23066 O1   85   DMPC O11  OSLP  -0.570000       15.9994           0
   23067 O1   85   DMPC O12  OSLP  -0.570000       15.9994           0
   23068 O1   85   DMPC C1   CTL2  -0.080000       12.0107           0
   23069 O1   85   DMPC HA   HAL2   0.090000        1.0079           0
   23070 O1   85   DMPC HB   HAL2   0.090000        1.0079           0
   23071 O1   85   DMPC C2   CTL1   0.170000       12.0107           0
   23072 O1   85   DMPC HS   HAL1   0.090000        1.0079           0
   23073 O1   85   DMPC O21  OSL   -0.490000       15.9994           0
   23074 O1   85   DMPC C21  CL     0.900000       12.0107           0
   23075 O1   85   DMPC O22  OBL   -0.630000       15.9994           0
   23076 O1   85   DMPC C22  CTL2  -0.220000       12.0107           0
   23077 O1   85   DMPC H2R  HAL2   0.090000        1.0079           0
   23078 O1   85   DMPC H2S  HAL2   0.090000        1.0079           0
   23079 O1   85   DMPC C3   CTL2   0.080000       12.0107           0
   23080 O1   85   DMPC HX   HAL2   0.090000        1.0079           0
   23081 O1   85   DMPC HY   HAL2   0.090000        1.0079           0
   23082 O1   85   DMPC O31  OSL   -0.490000       15.9994           0
   23083 O1   85   DMPC C31  CL     0.900000       12.0107           0
   23084 O1   85   DMPC O32  OBL   -0.630000       15.9994           0
   23085 O1   85   DMPC C32  CTL2  -0.220000       12.0107           0
   23086 O1   85   DMPC H2X  HAL2   0.090000        1.0079           0
   23087 O1   85   DMPC H2Y  HAL2   0.090000        1.0079           0
   23088 O1   85   DMPC C23  CTL2  -0.180000       12.0107           0
   23089 O1   85   DMPC H3R  HAL2   0.090000        1.0079           0
   23090 O1   85   DMPC H3S  HAL2   0.090000        1.0079           0
   23091 O1   85   DMPC C24  CTL2  -0.180000       12.0107           0
   23092 O1   85   DMPC H4R  HAL2   0.090000        1.0079           0
   23093 O1   85   DMPC H4S  HAL2   0.090000        1.0079           0
   23094 O1   85   DMPC C25  CTL2  -0.180000       12.0107           0
   23095 O1   85   DMPC H5R  HAL2   0.090000        1.0079           0
   23096 O1   85   DMPC H5S  HAL2   0.090000        1.0079           0
   23097 O1   85   DMPC C26  CTL2  -0.180000       12.0107           0
   23098 O1   85   DMPC H6R  HAL2   0.090000        1.0079           0
   23099 O1   85   DMPC H6S  HAL2   0.090000        1.0079           0
   23100 O1   85   DMPC C27  CTL2  -0.180000       12.0107           0
   23101 O1   85   DMPC H7R  HAL2   0.090000        1.0079           0
   23102 O1   85   DMPC H7S  HAL2   0.090000        1.0079           0
   23103 O1   85   DMPC C28  CTL2  -0.180000       12.0107           0
   23104 O1   85   DMPC H8R  HAL2   0.090000        1.0079           0
   23105 O1   85   DMPC H8S  HAL2   0.090000        1.0079           0
   23106 O1   85   DMPC C29  CTL2  -0.180000       12.0107           0
   23107 O1   85   DMPC H9R  HAL2   0.090000        1.0079           0
   23108 O1   85   DMPC H9S  HAL2   0.090000        1.0079           0
   23109 O1   85   DMPC C210 CTL2  -0.180000       12.0107           0
   23110 O1   85   DMPC H10R HAL2   0.090000        1.0079           0
   23111 O1   85   DMPC H10S HAL2   0.090000        1.0079           0
   23112 O1   85   DMPC C211 CTL2  -0.180000       12.0107           0
   23113 O1   85   DMPC H11R HAL2   0.090000        1.0079           0
   23114 O1   85   DMPC H11S HAL2   0.090000        1.0079           0
   23115 O1   85   DMPC C212 CTL2  -0.180000       12.0107           0
   23116 O1   85   DMPC H12R HAL2   0.090000        1.0079           0
   23117 O1   85   DMPC H12S HAL2   0.090000        1.0079           0
   23118 O1   85   DMPC C213 CTL2  -0.180000       12.0107           0
   23119 O1   85   DMPC H13R HAL2   0.090000        1.0079           0
   23120 O1   85   DMPC H13S HAL2   0.090000        1.0079           0
   23121 O1   85   DMPC C214 CTL3  -0.270000       12.0107           0
   23122 O1   85   DMPC H14R HAL3   0.090000        1.0079           0
   23123 O1   85   DMPC H14S HAL3   0.090000        1.0079           0
   23124 O1   85   DMPC H14T HAL3   0.090000        1.0079           0
   23125 O1   85   DMPC C33  CTL2  -0.180000       12.0107           0
   23126 O1   85   DMPC H3X  HAL2   0.090000        1.0079           0
   23127 O1   85   DMPC H3Y  HAL2   0.090000        1.0079           0
   23128 O1   85   DMPC C34  CTL2  -0.180000       12.0107           0
   23129 O1   85   DMPC H4X  HAL2   0.090000        1.0079           0
   23130 O1   85   DMPC H4Y  HAL2   0.090000        1.0079           0
   23131 O1   85   DMPC C35  CTL2  -0.180000       12.0107           0
   23132 O1   85   DMPC H5X  HAL2   0.090000        1.0079           0
   23133 O1   85   DMPC H5Y  HAL2   0.090000        1.0079           0
   23134 O1   85   DMPC C36  CTL2  -0.180000       12.0107           0
   23135 O1   85   DMPC H6X  HAL2   0.090000        1.0079           0
   23136 O1   85   DMPC H6Y  HAL2   0.090000        1.0079           0
   23137 O1   85   DMPC C37  CTL2  -0.180000       12.0107           0
   23138 O1   85   DMPC H7X  HAL2   0.090000        1.0079           0
   23139 O1   85   DMPC H7Y  HAL2   0.090000        1.0079           0
   23140 O1   85   DMPC C38  CTL2  -0.180000       12.0107           0
   23141 O1   85   DMPC H8X  HAL2   0.090000        1.0079           0
   23142 O1   85   DMPC H8Y  HAL2   0.090000        1.0079           0
   23143 O1   85   DMPC C39  CTL2  -0.180000       12.0107           0
   23144 O1   85   DMPC H9X  HAL2   0.090000        1.0079           0
   23145 O1   85   DMPC H9Y  HAL2   0.090000        1.0079           0
   23146 O1   85   DMPC C310 CTL2  -0.180000       12.0107           0
   23147 O1   85   DMPC H10X HAL2   0.090000        1.0079           0
   23148 O1   85   DMPC H10Y HAL2   0.090000        1.0079           0
   23149 O1   85   DMPC C311 CTL2  -0.180000       12.0107           0
   23150 O1   85   DMPC H11X HAL2   0.090000        1.0079           0
   23151 O1   85   DMPC H11Y HAL2   0.090000        1.0079           0
   23152 O1   85   DMPC C312 CTL2  -0.180000       12.0107           0
   23153 O1   85   DMPC H12X HAL2   0.090000        1.0079           0
   23154 O1   85   DMPC H12Y HAL2   0.090000        1.0079           0
   23155 O1   85   DMPC C313 CTL2  -0.180000       12.0107           0
   23156 O1   85   DMPC H13X HAL2   0.090000        1.0079           0
   23157 O1   85   DMPC H13Y HAL2   0.090000        1.0079           0
   23158 O1   85   DMPC C314 CTL3  -0.270000       12.0107           0
   23159 O1   85   DMPC H14X HAL3   0.090000        1.0079           0
   23160 O1   85   DMPC H14Y HAL3   0.090000        1.0079           0
   23161 O1   85   DMPC H14Z HAL3   0.090000        1.0079           0
   23162 O1   86   DMPC N    NTL   -0.600000       14.0067           0
   23163 O1   86   DMPC C13  CTL5  -0.350000       12.0107           0
   23164 O1   86   DMPC H13A HL     0.250000        1.0079           0
   23165 O1   86   DMPC H13B HL     0.250000        1.0079           0
   23166 O1   86   DMPC H13C HL     0.250000        1.0079           0
   23167 O1   86   DMPC C14  CTL5  -0.350000       12.0107           0
   23168 O1   86   DMPC H14A HL     0.250000        1.0079           0
   23169 O1   86   DMPC H14B HL     0.250000        1.0079           0
   23170 O1   86   DMPC H14C HL     0.250000        1.0079           0
   23171 O1   86   DMPC C15  CTL5  -0.350000       12.0107           0
   23172 O1   86   DMPC H15A HL     0.250000        1.0079           0
   23173 O1   86   DMPC H15B HL     0.250000        1.0079           0
   23174 O1   86   DMPC H15C HL     0.250000        1.0079           0
   23175 O1   86   DMPC C12  CTL2  -0.100000       12.0107           0
   23176 O1   86   DMPC H12A HL     0.250000        1.0079           0
   23177 O1   86   DMPC H12B HL     0.250000        1.0079           0
   23178 O1   86   DMPC C11  CTL2  -0.080000       12.0107           0
   23179 O1   86   DMPC H11A HAL2   0.090000        1.0079           0
   23180 O1   86   DMPC H11B HAL2   0.090000        1.0079           0
   23181 O1   86   DMPC P    PL     1.500000       30.9738           0
   23182 O1   86   DMPC O13  O2L   -0.780000       15.9994           0
   23183 O1   86   DMPC O14  O2L   -0.780000       15.9994           0
   23184 O1   86   DMPC O11  OSLP  -0.570000       15.9994           0
   23185 O1   86   DMPC O12  OSLP  -0.570000       15.9994           0
   23186 O1   86   DMPC C1   CTL2  -0.080000       12.0107           0
   23187 O1   86   DMPC HA   HAL2   0.090000        1.0079           0
   23188 O1   86   DMPC HB   HAL2   0.090000        1.0079           0
   23189 O1   86   DMPC C2   CTL1   0.170000       12.0107           0
   23190 O1   86   DMPC HS   HAL1   0.090000        1.0079           0
   23191 O1   86   DMPC O21  OSL   -0.490000       15.9994           0
   23192 O1   86   DMPC C21  CL     0.900000       12.0107           0
   23193 O1   86   DMPC O22  OBL   -0.630000       15.9994           0
   23194 O1   86   DMPC C22  CTL2  -0.220000       12.0107           0
   23195 O1   86   DMPC H2R  HAL2   0.090000        1.0079           0
   23196 O1   86   DMPC H2S  HAL2   0.090000        1.0079           0
   23197 O1   86   DMPC C3   CTL2   0.080000       12.0107           0
   23198 O1   86   DMPC HX   HAL2   0.090000        1.0079           0
   23199 O1   86   DMPC HY   HAL2   0.090000        1.0079           0
   23200 O1   86   DMPC O31  OSL   -0.490000       15.9994           0
   23201 O1   86   DMPC C31  CL     0.900000       12.0107           0
   23202 O1   86   DMPC O32  OBL   -0.630000       15.9994           0
   23203 O1   86   DMPC C32  CTL2  -0.220000       12.0107           0
   23204 O1   86   DMPC H2X  HAL2   0.090000        1.0079           0
   23205 O1   86   DMPC H2Y  HAL2   0.090000        1.0079           0
   23206 O1   86   DMPC C23  CTL2  -0.180000       12.0107           0
   23207 O1   86   DMPC H3R  HAL2   0.090000        1.0079           0
   23208 O1   86   DMPC H3S  HAL2   0.090000        1.0079           0
   23209 O1   86   DMPC C24  CTL2  -0.180000       12.0107           0
   23210 O1   86   DMPC H4R  HAL2   0.090000        1.0079           0
   23211 O1   86   DMPC H4S  HAL2   0.090000        1.0079           0
   23212 O1   86   DMPC C25  CTL2  -0.180000       12.0107           0
   23213 O1   86   DMPC H5R  HAL2   0.090000        1.0079           0
   23214 O1   86   DMPC H5S  HAL2   0.090000        1.0079           0
   23215 O1   86   DMPC C26  CTL2  -0.180000       12.0107           0
   23216 O1   86   DMPC H6R  HAL2   0.090000        1.0079           0
   23217 O1   86   DMPC H6S  HAL2   0.090000        1.0079           0
   23218 O1   86   DMPC C27  CTL2  -0.180000       12.0107           0
   23219 O1   86   DMPC H7R  HAL2   0.090000        1.0079           0
   23220 O1   86   DMPC H7S  HAL2   0.090000        1.0079           0
   23221 O1   86   DMPC C28  CTL2  -0.180000       12.0107           0
   23222 O1   86   DMPC H8R  HAL2   0.090000        1.0079           0
   23223 O1   86   DMPC H8S  HAL2   0.090000        1.0079           0
   23224 O1   86   DMPC C29  CTL2  -0.180000       12.0107           0
   23225 O1   86   DMPC H9R  HAL2   0.090000        1.0079           0
   23226 O1   86   DMPC H9S  HAL2   0.090000        1.0079           0
   23227 O1   86   DMPC C210 CTL2  -0.180000       12.0107           0
   23228 O1   86   DMPC H10R HAL2   0.090000        1.0079           0
   23229 O1   86   DMPC H10S HAL2   0.090000        1.0079           0
   23230 O1   86   DMPC C211 CTL2  -0.180000       12.0107           0
   23231 O1   86   DMPC H11R HAL2   0.090000        1.0079           0
   23232 O1   86   DMPC H11S HAL2   0.090000        1.0079           0
   23233 O1   86   DMPC C212 CTL2  -0.180000       12.0107           0
   23234 O1   86   DMPC H12R HAL2   0.090000        1.0079           0
   23235 O1   86   DMPC H12S HAL2   0.090000        1.0079           0
   23236 O1   86   DMPC C213 CTL2  -0.180000       12.0107           0
   23237 O1   86   DMPC H13R HAL2   0.090000        1.0079           0
   23238 O1   86   DMPC H13S HAL2   0.090000        1.0079           0
   23239 O1   86   DMPC C214 CTL3  -0.270000       12.0107           0
   23240 O1   86   DMPC H14R HAL3   0.090000        1.0079           0
   23241 O1   86   DMPC H14S HAL3   0.090000        1.0079           0
   23242 O1   86   DMPC H14T HAL3   0.090000        1.0079           0
   23243 O1   86   DMPC C33  CTL2  -0.180000       12.0107           0
   23244 O1   86   DMPC H3X  HAL2   0.090000        1.0079           0
   23245 O1   86   DMPC H3Y  HAL2   0.090000        1.0079           0
   23246 O1   86   DMPC C34  CTL2  -0.180000       12.0107           0
   23247 O1   86   DMPC H4X  HAL2   0.090000        1.0079           0
   23248 O1   86   DMPC H4Y  HAL2   0.090000        1.0079           0
   23249 O1   86   DMPC C35  CTL2  -0.180000       12.0107           0
   23250 O1   86   DMPC H5X  HAL2   0.090000        1.0079           0
   23251 O1   86   DMPC H5Y  HAL2   0.090000        1.0079           0
   23252 O1   86   DMPC C36  CTL2  -0.180000       12.0107           0
   23253 O1   86   DMPC H6X  HAL2   0.090000        1.0079           0
   23254 O1   86   DMPC H6Y  HAL2   0.090000        1.0079           0
   23255 O1   86   DMPC C37  CTL2  -0.180000       12.0107           0
   23256 O1   86   DMPC H7X  HAL2   0.090000        1.0079           0
   23257 O1   86   DMPC H7Y  HAL2   0.090000        1.0079           0
   23258 O1   86   DMPC C38  CTL2  -0.180000       12.0107           0
   23259 O1   86   DMPC H8X  HAL2   0.090000        1.0079           0
   23260 O1   86   DMPC H8Y  HAL2   0.090000        1.0079           0
   23261 O1   86   DMPC C39  CTL2  -0.180000       12.0107           0
   23262 O1   86   DMPC H9X  HAL2   0.090000        1.0079           0
   23263 O1   86   DMPC H9Y  HAL2   0.090000        1.0079           0
   23264 O1   86   DMPC C310 CTL2  -0.180000       12.0107           0
   23265 O1   86   DMPC H10X HAL2   0.090000        1.0079           0
   23266 O1   86   DMPC H10Y HAL2   0.090000        1.0079           0
   23267 O1   86   DMPC C311 CTL2  -0.180000       12.0107           0
   23268 O1   86   DMPC H11X HAL2   0.090000        1.0079           0
   23269 O1   86   DMPC H11Y HAL2   0.090000        1.0079           0
   23270 O1   86   DMPC C312 CTL2  -0.180000       12.0107           0
   23271 O1   86   DMPC H12X HAL2   0.090000        1.0079           0
   23272 O1   86   DMPC H12Y HAL2   0.090000        1.0079           0
   23273 O1   86   DMPC C313 CTL2  -0.180000       12.0107           0
   23274 O1   86   DMPC H13X HAL2   0.090000        1.0079           0
   23275 O1   86   DMPC H13Y HAL2   0.090000        1.0079           0
   23276 O1   86   DMPC C314 CTL3  -0.270000       12.0107           0
   23277 O1   86   DMPC H14X HAL3   0.090000        1.0079           0
   23278 O1   86   DMPC H14Y HAL3   0.090000        1.0079           0
   23279 O1   86   DMPC H14Z HAL3   0.090000        1.0079           0
   23280 O1   87   DMPC N    NTL   -0.600000       14.0067           0
   23281 O1   87   DMPC C13  CTL5  -0.350000       12.0107           0
   23282 O1   87   DMPC H13A HL     0.250000        1.0079           0
   23283 O1   87   DMPC H13B HL     0.250000        1.0079           0
   23284 O1   87   DMPC H13C HL     0.250000        1.0079           0
   23285 O1   87   DMPC C14  CTL5  -0.350000       12.0107           0
   23286 O1   87   DMPC H14A HL     0.250000        1.0079           0
   23287 O1   87   DMPC H14B HL     0.250000        1.0079           0
   23288 O1   87   DMPC H14C HL     0.250000        1.0079           0
   23289 O1   87   DMPC C15  CTL5  -0.350000       12.0107           0
   23290 O1   87   DMPC H15A HL     0.250000        1.0079           0
   23291 O1   87   DMPC H15B HL     0.250000        1.0079           0
   23292 O1   87   DMPC H15C HL     0.250000        1.0079           0
   23293 O1   87   DMPC C12  CTL2  -0.100000       12.0107           0
   23294 O1   87   DMPC H12A HL     0.250000        1.0079           0
   23295 O1   87   DMPC H12B HL     0.250000        1.0079           0
   23296 O1   87   DMPC C11  CTL2  -0.080000       12.0107           0
   23297 O1   87   DMPC H11A HAL2   0.090000        1.0079           0
   23298 O1   87   DMPC H11B HAL2   0.090000        1.0079           0
   23299 O1   87   DMPC P    PL     1.500000       30.9738           0
   23300 O1   87   DMPC O13  O2L   -0.780000       15.9994           0
   23301 O1   87   DMPC O14  O2L   -0.780000       15.9994           0
   23302 O1   87   DMPC O11  OSLP  -0.570000       15.9994           0
   23303 O1   87   DMPC O12  OSLP  -0.570000       15.9994           0
   23304 O1   87   DMPC C1   CTL2  -0.080000       12.0107           0
   23305 O1   87   DMPC HA   HAL2   0.090000        1.0079           0
   23306 O1   87   DMPC HB   HAL2   0.090000        1.0079           0
   23307 O1   87   DMPC C2   CTL1   0.170000       12.0107           0
   23308 O1   87   DMPC HS   HAL1   0.090000        1.0079           0
   23309 O1   87   DMPC O21  OSL   -0.490000       15.9994           0
   23310 O1   87   DMPC C21  CL     0.900000       12.0107           0
   23311 O1   87   DMPC O22  OBL   -0.630000       15.9994           0
   23312 O1   87   DMPC C22  CTL2  -0.220000       12.0107           0
   23313 O1   87   DMPC H2R  HAL2   0.090000        1.0079           0
   23314 O1   87   DMPC H2S  HAL2   0.090000        1.0079           0
   23315 O1   87   DMPC C3   CTL2   0.080000       12.0107           0
   23316 O1   87   DMPC HX   HAL2   0.090000        1.0079           0
   23317 O1   87   DMPC HY   HAL2   0.090000        1.0079           0
   23318 O1   87   DMPC O31  OSL   -0.490000       15.9994           0
   23319 O1   87   DMPC C31  CL     0.900000       12.0107           0
   23320 O1   87   DMPC O32  OBL   -0.630000       15.9994           0
   23321 O1   87   DMPC C32  CTL2  -0.220000       12.0107           0
   23322 O1   87   DMPC H2X  HAL2   0.090000        1.0079           0
   23323 O1   87   DMPC H2Y  HAL2   0.090000        1.0079           0
   23324 O1   87   DMPC C23  CTL2  -0.180000       12.0107           0
   23325 O1   87   DMPC H3R  HAL2   0.090000        1.0079           0
   23326 O1   87   DMPC H3S  HAL2   0.090000        1.0079           0
   23327 O1   87   DMPC C24  CTL2  -0.180000       12.0107           0
   23328 O1   87   DMPC H4R  HAL2   0.090000        1.0079           0
   23329 O1   87   DMPC H4S  HAL2   0.090000        1.0079           0
   23330 O1   87   DMPC C25  CTL2  -0.180000       12.0107           0
   23331 O1   87   DMPC H5R  HAL2   0.090000        1.0079           0
   23332 O1   87   DMPC H5S  HAL2   0.090000        1.0079           0
   23333 O1   87   DMPC C26  CTL2  -0.180000       12.0107           0
   23334 O1   87   DMPC H6R  HAL2   0.090000        1.0079           0
   23335 O1   87   DMPC H6S  HAL2   0.090000        1.0079           0
   23336 O1   87   DMPC C27  CTL2  -0.180000       12.0107           0
   23337 O1   87   DMPC H7R  HAL2   0.090000        1.0079           0
   23338 O1   87   DMPC H7S  HAL2   0.090000        1.0079           0
   23339 O1   87   DMPC C28  CTL2  -0.180000       12.0107           0
   23340 O1   87   DMPC H8R  HAL2   0.090000        1.0079           0
   23341 O1   87   DMPC H8S  HAL2   0.090000        1.0079           0
   23342 O1   87   DMPC C29  CTL2  -0.180000       12.0107           0
   23343 O1   87   DMPC H9R  HAL2   0.090000        1.0079           0
   23344 O1   87   DMPC H9S  HAL2   0.090000        1.0079           0
   23345 O1   87   DMPC C210 CTL2  -0.180000       12.0107           0
   23346 O1   87   DMPC H10R HAL2   0.090000        1.0079           0
   23347 O1   87   DMPC H10S HAL2   0.090000        1.0079           0
   23348 O1   87   DMPC C211 CTL2  -0.180000       12.0107           0
   23349 O1   87   DMPC H11R HAL2   0.090000        1.0079           0
   23350 O1   87   DMPC H11S HAL2   0.090000        1.0079           0
   23351 O1   87   DMPC C212 CTL2  -0.180000       12.0107           0
   23352 O1   87   DMPC H12R HAL2   0.090000        1.0079           0
   23353 O1   87   DMPC H12S HAL2   0.090000        1.0079           0
   23354 O1   87   DMPC C213 CTL2  -0.180000       12.0107           0
   23355 O1   87   DMPC H13R HAL2   0.090000        1.0079           0
   23356 O1   87   DMPC H13S HAL2   0.090000        1.0079           0
   23357 O1   87   DMPC C214 CTL3  -0.270000       12.0107           0
   23358 O1   87   DMPC H14R HAL3   0.090000        1.0079           0
   23359 O1   87   DMPC H14S HAL3   0.090000        1.0079           0
   23360 O1   87   DMPC H14T HAL3   0.090000        1.0079           0
   23361 O1   87   DMPC C33  CTL2  -0.180000       12.0107           0
   23362 O1   87   DMPC H3X  HAL2   0.090000        1.0079           0
   23363 O1   87   DMPC H3Y  HAL2   0.090000        1.0079           0
   23364 O1   87   DMPC C34  CTL2  -0.180000       12.0107           0
   23365 O1   87   DMPC H4X  HAL2   0.090000        1.0079           0
   23366 O1   87   DMPC H4Y  HAL2   0.090000        1.0079           0
   23367 O1   87   DMPC C35  CTL2  -0.180000       12.0107           0
   23368 O1   87   DMPC H5X  HAL2   0.090000        1.0079           0
   23369 O1   87   DMPC H5Y  HAL2   0.090000        1.0079           0
   23370 O1   87   DMPC C36  CTL2  -0.180000       12.0107           0
   23371 O1   87   DMPC H6X  HAL2   0.090000        1.0079           0
   23372 O1   87   DMPC H6Y  HAL2   0.090000        1.0079           0
   23373 O1   87   DMPC C37  CTL2  -0.180000       12.0107           0
   23374 O1   87   DMPC H7X  HAL2   0.090000        1.0079           0
   23375 O1   87   DMPC H7Y  HAL2   0.090000        1.0079           0
   23376 O1   87   DMPC C38  CTL2  -0.180000       12.0107           0
   23377 O1   87   DMPC H8X  HAL2   0.090000        1.0079           0
   23378 O1   87   DMPC H8Y  HAL2   0.090000        1.0079           0
   23379 O1   87   DMPC C39  CTL2  -0.180000       12.0107           0
   23380 O1   87   DMPC H9X  HAL2   0.090000        1.0079           0
   23381 O1   87   DMPC H9Y  HAL2   0.090000        1.0079           0
   23382 O1   87   DMPC C310 CTL2  -0.180000       12.0107           0
   23383 O1   87   DMPC H10X HAL2   0.090000        1.0079           0
   23384 O1   87   DMPC H10Y HAL2   0.090000        1.0079           0
   23385 O1   87   DMPC C311 CTL2  -0.180000       12.0107           0
   23386 O1   87   DMPC H11X HAL2   0.090000        1.0079           0
   23387 O1   87   DMPC H11Y HAL2   0.090000        1.0079           0
   23388 O1   87   DMPC C312 CTL2  -0.180000       12.0107           0
   23389 O1   87   DMPC H12X HAL2   0.090000        1.0079           0
   23390 O1   87   DMPC H12Y HAL2   0.090000        1.0079           0
   23391 O1   87   DMPC C313 CTL2  -0.180000       12.0107           0
   23392 O1   87   DMPC H13X HAL2   0.090000        1.0079           0
   23393 O1   87   DMPC H13Y HAL2   0.090000        1.0079           0
   23394 O1   87   DMPC C314 CTL3  -0.270000       12.0107           0
   23395 O1   87   DMPC H14X HAL3   0.090000        1.0079           0
   23396 O1   87   DMPC H14Y HAL3   0.090000        1.0079           0
   23397 O1   87   DMPC H14Z HAL3   0.090000        1.0079           0
   23398 O1   88   DMPC N    NTL   -0.600000       14.0067           0
   23399 O1   88   DMPC C13  CTL5  -0.350000       12.0107           0
   23400 O1   88   DMPC H13A HL     0.250000        1.0079           0
   23401 O1   88   DMPC H13B HL     0.250000        1.0079           0
   23402 O1   88   DMPC H13C HL     0.250000        1.0079           0
   23403 O1   88   DMPC C14  CTL5  -0.350000       12.0107           0
   23404 O1   88   DMPC H14A HL     0.250000        1.0079           0
   23405 O1   88   DMPC H14B HL     0.250000        1.0079           0
   23406 O1   88   DMPC H14C HL     0.250000        1.0079           0
   23407 O1   88   DMPC C15  CTL5  -0.350000       12.0107           0
   23408 O1   88   DMPC H15A HL     0.250000        1.0079           0
   23409 O1   88   DMPC H15B HL     0.250000        1.0079           0
   23410 O1   88   DMPC H15C HL     0.250000        1.0079           0
   23411 O1   88   DMPC C12  CTL2  -0.100000       12.0107           0
   23412 O1   88   DMPC H12A HL     0.250000        1.0079           0
   23413 O1   88   DMPC H12B HL     0.250000        1.0079           0
   23414 O1   88   DMPC C11  CTL2  -0.080000       12.0107           0
   23415 O1   88   DMPC H11A HAL2   0.090000        1.0079           0
   23416 O1   88   DMPC H11B HAL2   0.090000        1.0079           0
   23417 O1   88   DMPC P    PL     1.500000       30.9738           0
   23418 O1   88   DMPC O13  O2L   -0.780000       15.9994           0
   23419 O1   88   DMPC O14  O2L   -0.780000       15.9994           0
   23420 O1   88   DMPC O11  OSLP  -0.570000       15.9994           0
   23421 O1   88   DMPC O12  OSLP  -0.570000       15.9994           0
   23422 O1   88   DMPC C1   CTL2  -0.080000       12.0107           0
   23423 O1   88   DMPC HA   HAL2   0.090000        1.0079           0
   23424 O1   88   DMPC HB   HAL2   0.090000        1.0079           0
   23425 O1   88   DMPC C2   CTL1   0.170000       12.0107           0
   23426 O1   88   DMPC HS   HAL1   0.090000        1.0079           0
   23427 O1   88   DMPC O21  OSL   -0.490000       15.9994           0
   23428 O1   88   DMPC C21  CL     0.900000       12.0107           0
   23429 O1   88   DMPC O22  OBL   -0.630000       15.9994           0
   23430 O1   88   DMPC C22  CTL2  -0.220000       12.0107           0
   23431 O1   88   DMPC H2R  HAL2   0.090000        1.0079           0
   23432 O1   88   DMPC H2S  HAL2   0.090000        1.0079           0
   23433 O1   88   DMPC C3   CTL2   0.080000       12.0107           0
   23434 O1   88   DMPC HX   HAL2   0.090000        1.0079           0
   23435 O1   88   DMPC HY   HAL2   0.090000        1.0079           0
   23436 O1   88   DMPC O31  OSL   -0.490000       15.9994           0
   23437 O1   88   DMPC C31  CL     0.900000       12.0107           0
   23438 O1   88   DMPC O32  OBL   -0.630000       15.9994           0
   23439 O1   88   DMPC C32  CTL2  -0.220000       12.0107           0
   23440 O1   88   DMPC H2X  HAL2   0.090000        1.0079           0
   23441 O1   88   DMPC H2Y  HAL2   0.090000        1.0079           0
   23442 O1   88   DMPC C23  CTL2  -0.180000       12.0107           0
   23443 O1   88   DMPC H3R  HAL2   0.090000        1.0079           0
   23444 O1   88   DMPC H3S  HAL2   0.090000        1.0079           0
   23445 O1   88   DMPC C24  CTL2  -0.180000       12.0107           0
   23446 O1   88   DMPC H4R  HAL2   0.090000        1.0079           0
   23447 O1   88   DMPC H4S  HAL2   0.090000        1.0079           0
   23448 O1   88   DMPC C25  CTL2  -0.180000       12.0107           0
   23449 O1   88   DMPC H5R  HAL2   0.090000        1.0079           0
   23450 O1   88   DMPC H5S  HAL2   0.090000        1.0079           0
   23451 O1   88   DMPC C26  CTL2  -0.180000       12.0107           0
   23452 O1   88   DMPC H6R  HAL2   0.090000        1.0079           0
   23453 O1   88   DMPC H6S  HAL2   0.090000        1.0079           0
   23454 O1   88   DMPC C27  CTL2  -0.180000       12.0107           0
   23455 O1   88   DMPC H7R  HAL2   0.090000        1.0079           0
   23456 O1   88   DMPC H7S  HAL2   0.090000        1.0079           0
   23457 O1   88   DMPC C28  CTL2  -0.180000       12.0107           0
   23458 O1   88   DMPC H8R  HAL2   0.090000        1.0079           0
   23459 O1   88   DMPC H8S  HAL2   0.090000        1.0079           0
   23460 O1   88   DMPC C29  CTL2  -0.180000       12.0107           0
   23461 O1   88   DMPC H9R  HAL2   0.090000        1.0079           0
   23462 O1   88   DMPC H9S  HAL2   0.090000        1.0079           0
   23463 O1   88   DMPC C210 CTL2  -0.180000       12.0107           0
   23464 O1   88   DMPC H10R HAL2   0.090000        1.0079           0
   23465 O1   88   DMPC H10S HAL2   0.090000        1.0079           0
   23466 O1   88   DMPC C211 CTL2  -0.180000       12.0107           0
   23467 O1   88   DMPC H11R HAL2   0.090000        1.0079           0
   23468 O1   88   DMPC H11S HAL2   0.090000        1.0079           0
   23469 O1   88   DMPC C212 CTL2  -0.180000       12.0107           0
   23470 O1   88   DMPC H12R HAL2   0.090000        1.0079           0
   23471 O1   88   DMPC H12S HAL2   0.090000        1.0079           0
   23472 O1   88   DMPC C213 CTL2  -0.180000       12.0107           0
   23473 O1   88   DMPC H13R HAL2   0.090000        1.0079           0
   23474 O1   88   DMPC H13S HAL2   0.090000        1.0079           0
   23475 O1   88   DMPC C214 CTL3  -0.270000       12.0107           0
   23476 O1   88   DMPC H14R HAL3   0.090000        1.0079           0
   23477 O1   88   DMPC H14S HAL3   0.090000        1.0079           0
   23478 O1   88   DMPC H14T HAL3   0.090000        1.0079           0
   23479 O1   88   DMPC C33  CTL2  -0.180000       12.0107           0
   23480 O1   88   DMPC H3X  HAL2   0.090000        1.0079           0
   23481 O1   88   DMPC H3Y  HAL2   0.090000        1.0079           0
   23482 O1   88   DMPC C34  CTL2  -0.180000       12.0107           0
   23483 O1   88   DMPC H4X  HAL2   0.090000        1.0079           0
   23484 O1   88   DMPC H4Y  HAL2   0.090000        1.0079           0
   23485 O1   88   DMPC C35  CTL2  -0.180000       12.0107           0
   23486 O1   88   DMPC H5X  HAL2   0.090000        1.0079           0
   23487 O1   88   DMPC H5Y  HAL2   0.090000        1.0079           0
   23488 O1   88   DMPC C36  CTL2  -0.180000       12.0107           0
   23489 O1   88   DMPC H6X  HAL2   0.090000        1.0079           0
   23490 O1   88   DMPC H6Y  HAL2   0.090000        1.0079           0
   23491 O1   88   DMPC C37  CTL2  -0.180000       12.0107           0
   23492 O1   88   DMPC H7X  HAL2   0.090000        1.0079           0
   23493 O1   88   DMPC H7Y  HAL2   0.090000        1.0079           0
   23494 O1   88   DMPC C38  CTL2  -0.180000       12.0107           0
   23495 O1   88   DMPC H8X  HAL2   0.090000        1.0079           0
   23496 O1   88   DMPC H8Y  HAL2   0.090000        1.0079           0
   23497 O1   88   DMPC C39  CTL2  -0.180000       12.0107           0
   23498 O1   88   DMPC H9X  HAL2   0.090000        1.0079           0
   23499 O1   88   DMPC H9Y  HAL2   0.090000        1.0079           0
   23500 O1   88   DMPC C310 CTL2  -0.180000       12.0107           0
   23501 O1   88   DMPC H10X HAL2   0.090000        1.0079           0
   23502 O1   88   DMPC H10Y HAL2   0.090000        1.0079           0
   23503 O1   88   DMPC C311 CTL2  -0.180000       12.0107           0
   23504 O1   88   DMPC H11X HAL2   0.090000        1.0079           0
   23505 O1   88   DMPC H11Y HAL2   0.090000        1.0079           0
   23506 O1   88   DMPC C312 CTL2  -0.180000       12.0107           0
   23507 O1   88   DMPC H12X HAL2   0.090000        1.0079           0
   23508 O1   88   DMPC H12Y HAL2   0.090000        1.0079           0
   23509 O1   88   DMPC C313 CTL2  -0.180000       12.0107           0
   23510 O1   88   DMPC H13X HAL2   0.090000        1.0079           0
   23511 O1   88   DMPC H13Y HAL2   0.090000        1.0079           0
   23512 O1   88   DMPC C314 CTL3  -0.270000       12.0107           0
   23513 O1   88   DMPC H14X HAL3   0.090000        1.0079           0
   23514 O1   88   DMPC H14Y HAL3   0.090000        1.0079           0
   23515 O1   88   DMPC H14Z HAL3   0.090000        1.0079           0
   23516 O1   89   DMPC N    NTL   -0.600000       14.0067           0
   23517 O1   89   DMPC C13  CTL5  -0.350000       12.0107           0
   23518 O1   89   DMPC H13A HL     0.250000        1.0079           0
   23519 O1   89   DMPC H13B HL     0.250000        1.0079           0
   23520 O1   89   DMPC H13C HL     0.250000        1.0079           0
   23521 O1   89   DMPC C14  CTL5  -0.350000       12.0107           0
   23522 O1   89   DMPC H14A HL     0.250000        1.0079           0
   23523 O1   89   DMPC H14B HL     0.250000        1.0079           0
   23524 O1   89   DMPC H14C HL     0.250000        1.0079           0
   23525 O1   89   DMPC C15  CTL5  -0.350000       12.0107           0
   23526 O1   89   DMPC H15A HL     0.250000        1.0079           0
   23527 O1   89   DMPC H15B HL     0.250000        1.0079           0
   23528 O1   89   DMPC H15C HL     0.250000        1.0079           0
   23529 O1   89   DMPC C12  CTL2  -0.100000       12.0107           0
   23530 O1   89   DMPC H12A HL     0.250000        1.0079           0
   23531 O1   89   DMPC H12B HL     0.250000        1.0079           0
   23532 O1   89   DMPC C11  CTL2  -0.080000       12.0107           0
   23533 O1   89   DMPC H11A HAL2   0.090000        1.0079           0
   23534 O1   89   DMPC H11B HAL2   0.090000        1.0079           0
   23535 O1   89   DMPC P    PL     1.500000       30.9738           0
   23536 O1   89   DMPC O13  O2L   -0.780000       15.9994           0
   23537 O1   89   DMPC O14  O2L   -0.780000       15.9994           0
   23538 O1   89   DMPC O11  OSLP  -0.570000       15.9994           0
   23539 O1   89   DMPC O12  OSLP  -0.570000       15.9994           0
   23540 O1   89   DMPC C1   CTL2  -0.080000       12.0107           0
   23541 O1   89   DMPC HA   HAL2   0.090000        1.0079           0
   23542 O1   89   DMPC HB   HAL2   0.090000        1.0079           0
   23543 O1   89   DMPC C2   CTL1   0.170000       12.0107           0
   23544 O1   89   DMPC HS   HAL1   0.090000        1.0079           0
   23545 O1   89   DMPC O21  OSL   -0.490000       15.9994           0
   23546 O1   89   DMPC C21  CL     0.900000       12.0107           0
   23547 O1   89   DMPC O22  OBL   -0.630000       15.9994           0
   23548 O1   89   DMPC C22  CTL2  -0.220000       12.0107           0
   23549 O1   89   DMPC H2R  HAL2   0.090000        1.0079           0
   23550 O1   89   DMPC H2S  HAL2   0.090000        1.0079           0
   23551 O1   89   DMPC C3   CTL2   0.080000       12.0107           0
   23552 O1   89   DMPC HX   HAL2   0.090000        1.0079           0
   23553 O1   89   DMPC HY   HAL2   0.090000        1.0079           0
   23554 O1   89   DMPC O31  OSL   -0.490000       15.9994           0
   23555 O1   89   DMPC C31  CL     0.900000       12.0107           0
   23556 O1   89   DMPC O32  OBL   -0.630000       15.9994           0
   23557 O1   89   DMPC C32  CTL2  -0.220000       12.0107           0
   23558 O1   89   DMPC H2X  HAL2   0.090000        1.0079           0
   23559 O1   89   DMPC H2Y  HAL2   0.090000        1.0079           0
   23560 O1   89   DMPC C23  CTL2  -0.180000       12.0107           0
   23561 O1   89   DMPC H3R  HAL2   0.090000        1.0079           0
   23562 O1   89   DMPC H3S  HAL2   0.090000        1.0079           0
   23563 O1   89   DMPC C24  CTL2  -0.180000       12.0107           0
   23564 O1   89   DMPC H4R  HAL2   0.090000        1.0079           0
   23565 O1   89   DMPC H4S  HAL2   0.090000        1.0079           0
   23566 O1   89   DMPC C25  CTL2  -0.180000       12.0107           0
   23567 O1   89   DMPC H5R  HAL2   0.090000        1.0079           0
   23568 O1   89   DMPC H5S  HAL2   0.090000        1.0079           0
   23569 O1   89   DMPC C26  CTL2  -0.180000       12.0107           0
   23570 O1   89   DMPC H6R  HAL2   0.090000        1.0079           0
   23571 O1   89   DMPC H6S  HAL2   0.090000        1.0079           0
   23572 O1   89   DMPC C27  CTL2  -0.180000       12.0107           0
   23573 O1   89   DMPC H7R  HAL2   0.090000        1.0079           0
   23574 O1   89   DMPC H7S  HAL2   0.090000        1.0079           0
   23575 O1   89   DMPC C28  CTL2  -0.180000       12.0107           0
   23576 O1   89   DMPC H8R  HAL2   0.090000        1.0079           0
   23577 O1   89   DMPC H8S  HAL2   0.090000        1.0079           0
   23578 O1   89   DMPC C29  CTL2  -0.180000       12.0107           0
   23579 O1   89   DMPC H9R  HAL2   0.090000        1.0079           0
   23580 O1   89   DMPC H9S  HAL2   0.090000        1.0079           0
   23581 O1   89   DMPC C210 CTL2  -0.180000       12.0107           0
   23582 O1   89   DMPC H10R HAL2   0.090000        1.0079           0
   23583 O1   89   DMPC H10S HAL2   0.090000        1.0079           0
   23584 O1   89   DMPC C211 CTL2  -0.180000       12.0107           0
   23585 O1   89   DMPC H11R HAL2   0.090000        1.0079           0
   23586 O1   89   DMPC H11S HAL2   0.090000        1.0079           0
   23587 O1   89   DMPC C212 CTL2  -0.180000       12.0107           0
   23588 O1   89   DMPC H12R HAL2   0.090000        1.0079           0
   23589 O1   89   DMPC H12S HAL2   0.090000        1.0079           0
   23590 O1   89   DMPC C213 CTL2  -0.180000       12.0107           0
   23591 O1   89   DMPC H13R HAL2   0.090000        1.0079           0
   23592 O1   89   DMPC H13S HAL2   0.090000        1.0079           0
   23593 O1   89   DMPC C214 CTL3  -0.270000       12.0107           0
   23594 O1   89   DMPC H14R HAL3   0.090000        1.0079           0
   23595 O1   89   DMPC H14S HAL3   0.090000        1.0079           0
   23596 O1   89   DMPC H14T HAL3   0.090000        1.0079           0
   23597 O1   89   DMPC C33  CTL2  -0.180000       12.0107           0
   23598 O1   89   DMPC H3X  HAL2   0.090000        1.0079           0
   23599 O1   89   DMPC H3Y  HAL2   0.090000        1.0079           0
   23600 O1   89   DMPC C34  CTL2  -0.180000       12.0107           0
   23601 O1   89   DMPC H4X  HAL2   0.090000        1.0079           0
   23602 O1   89   DMPC H4Y  HAL2   0.090000        1.0079           0
   23603 O1   89   DMPC C35  CTL2  -0.180000       12.0107           0
   23604 O1   89   DMPC H5X  HAL2   0.090000        1.0079           0
   23605 O1   89   DMPC H5Y  HAL2   0.090000        1.0079           0
   23606 O1   89   DMPC C36  CTL2  -0.180000       12.0107           0
   23607 O1   89   DMPC H6X  HAL2   0.090000        1.0079           0
   23608 O1   89   DMPC H6Y  HAL2   0.090000        1.0079           0
   23609 O1   89   DMPC C37  CTL2  -0.180000       12.0107           0
   23610 O1   89   DMPC H7X  HAL2   0.090000        1.0079           0
   23611 O1   89   DMPC H7Y  HAL2   0.090000        1.0079           0
   23612 O1   89   DMPC C38  CTL2  -0.180000       12.0107           0
   23613 O1   89   DMPC H8X  HAL2   0.090000        1.0079           0
   23614 O1   89   DMPC H8Y  HAL2   0.090000        1.0079           0
   23615 O1   89   DMPC C39  CTL2  -0.180000       12.0107           0
   23616 O1   89   DMPC H9X  HAL2   0.090000        1.0079           0
   23617 O1   89   DMPC H9Y  HAL2   0.090000        1.0079           0
   23618 O1   89   DMPC C310 CTL2  -0.180000       12.0107           0
   23619 O1   89   DMPC H10X HAL2   0.090000        1.0079           0
   23620 O1   89   DMPC H10Y HAL2   0.090000        1.0079           0
   23621 O1   89   DMPC C311 CTL2  -0.180000       12.0107           0
   23622 O1   89   DMPC H11X HAL2   0.090000        1.0079           0
   23623 O1   89   DMPC H11Y HAL2   0.090000        1.0079           0
   23624 O1   89   DMPC C312 CTL2  -0.180000       12.0107           0
   23625 O1   89   DMPC H12X HAL2   0.090000        1.0079           0
   23626 O1   89   DMPC H12Y HAL2   0.090000        1.0079           0
   23627 O1   89   DMPC C313 CTL2  -0.180000       12.0107           0
   23628 O1   89   DMPC H13X HAL2   0.090000        1.0079           0
   23629 O1   89   DMPC H13Y HAL2   0.090000        1.0079           0
   23630 O1   89   DMPC C314 CTL3  -0.270000       12.0107           0
   23631 O1   89   DMPC H14X HAL3   0.090000        1.0079           0
   23632 O1   89   DMPC H14Y HAL3   0.090000        1.0079           0
   23633 O1   89   DMPC H14Z HAL3   0.090000        1.0079           0
   23634 O1   90   DMPC N    NTL   -0.600000       14.0067           0
   23635 O1   90   DMPC C13  CTL5  -0.350000       12.0107           0
   23636 O1   90   DMPC H13A HL     0.250000        1.0079           0
   23637 O1   90   DMPC H13B HL     0.250000        1.0079           0
   23638 O1   90   DMPC H13C HL     0.250000        1.0079           0
   23639 O1   90   DMPC C14  CTL5  -0.350000       12.0107           0
   23640 O1   90   DMPC H14A HL     0.250000        1.0079           0
   23641 O1   90   DMPC H14B HL     0.250000        1.0079           0
   23642 O1   90   DMPC H14C HL     0.250000        1.0079           0
   23643 O1   90   DMPC C15  CTL5  -0.350000       12.0107           0
   23644 O1   90   DMPC H15A HL     0.250000        1.0079           0
   23645 O1   90   DMPC H15B HL     0.250000        1.0079           0
   23646 O1   90   DMPC H15C HL     0.250000        1.0079           0
   23647 O1   90   DMPC C12  CTL2  -0.100000       12.0107           0
   23648 O1   90   DMPC H12A HL     0.250000        1.0079           0
   23649 O1   90   DMPC H12B HL     0.250000        1.0079           0
   23650 O1   90   DMPC C11  CTL2  -0.080000       12.0107           0
   23651 O1   90   DMPC H11A HAL2   0.090000        1.0079           0
   23652 O1   90   DMPC H11B HAL2   0.090000        1.0079           0
   23653 O1   90   DMPC P    PL     1.500000       30.9738           0
   23654 O1   90   DMPC O13  O2L   -0.780000       15.9994           0
   23655 O1   90   DMPC O14  O2L   -0.780000       15.9994           0
   23656 O1   90   DMPC O11  OSLP  -0.570000       15.9994           0
   23657 O1   90   DMPC O12  OSLP  -0.570000       15.9994           0
   23658 O1   90   DMPC C1   CTL2  -0.080000       12.0107           0
   23659 O1   90   DMPC HA   HAL2   0.090000        1.0079           0
   23660 O1   90   DMPC HB   HAL2   0.090000        1.0079           0
   23661 O1   90   DMPC C2   CTL1   0.170000       12.0107           0
   23662 O1   90   DMPC HS   HAL1   0.090000        1.0079           0
   23663 O1   90   DMPC O21  OSL   -0.490000       15.9994           0
   23664 O1   90   DMPC C21  CL     0.900000       12.0107           0
   23665 O1   90   DMPC O22  OBL   -0.630000       15.9994           0
   23666 O1   90   DMPC C22  CTL2  -0.220000       12.0107           0
   23667 O1   90   DMPC H2R  HAL2   0.090000        1.0079           0
   23668 O1   90   DMPC H2S  HAL2   0.090000        1.0079           0
   23669 O1   90   DMPC C3   CTL2   0.080000       12.0107           0
   23670 O1   90   DMPC HX   HAL2   0.090000        1.0079           0
   23671 O1   90   DMPC HY   HAL2   0.090000        1.0079           0
   23672 O1   90   DMPC O31  OSL   -0.490000       15.9994           0
   23673 O1   90   DMPC C31  CL     0.900000       12.0107           0
   23674 O1   90   DMPC O32  OBL   -0.630000       15.9994           0
   23675 O1   90   DMPC C32  CTL2  -0.220000       12.0107           0
   23676 O1   90   DMPC H2X  HAL2   0.090000        1.0079           0
   23677 O1   90   DMPC H2Y  HAL2   0.090000        1.0079           0
   23678 O1   90   DMPC C23  CTL2  -0.180000       12.0107           0
   23679 O1   90   DMPC H3R  HAL2   0.090000        1.0079           0
   23680 O1   90   DMPC H3S  HAL2   0.090000        1.0079           0
   23681 O1   90   DMPC C24  CTL2  -0.180000       12.0107           0
   23682 O1   90   DMPC H4R  HAL2   0.090000        1.0079           0
   23683 O1   90   DMPC H4S  HAL2   0.090000        1.0079           0
   23684 O1   90   DMPC C25  CTL2  -0.180000       12.0107           0
   23685 O1   90   DMPC H5R  HAL2   0.090000        1.0079           0
   23686 O1   90   DMPC H5S  HAL2   0.090000        1.0079           0
   23687 O1   90   DMPC C26  CTL2  -0.180000       12.0107           0
   23688 O1   90   DMPC H6R  HAL2   0.090000        1.0079           0
   23689 O1   90   DMPC H6S  HAL2   0.090000        1.0079           0
   23690 O1   90   DMPC C27  CTL2  -0.180000       12.0107           0
   23691 O1   90   DMPC H7R  HAL2   0.090000        1.0079           0
   23692 O1   90   DMPC H7S  HAL2   0.090000        1.0079           0
   23693 O1   90   DMPC C28  CTL2  -0.180000       12.0107           0
   23694 O1   90   DMPC H8R  HAL2   0.090000        1.0079           0
   23695 O1   90   DMPC H8S  HAL2   0.090000        1.0079           0
   23696 O1   90   DMPC C29  CTL2  -0.180000       12.0107           0
   23697 O1   90   DMPC H9R  HAL2   0.090000        1.0079           0
   23698 O1   90   DMPC H9S  HAL2   0.090000        1.0079           0
   23699 O1   90   DMPC C210 CTL2  -0.180000       12.0107           0
   23700 O1   90   DMPC H10R HAL2   0.090000        1.0079           0
   23701 O1   90   DMPC H10S HAL2   0.090000        1.0079           0
   23702 O1   90   DMPC C211 CTL2  -0.180000       12.0107           0
   23703 O1   90   DMPC H11R HAL2   0.090000        1.0079           0
   23704 O1   90   DMPC H11S HAL2   0.090000        1.0079           0
   23705 O1   90   DMPC C212 CTL2  -0.180000       12.0107           0
   23706 O1   90   DMPC H12R HAL2   0.090000        1.0079           0
   23707 O1   90   DMPC H12S HAL2   0.090000        1.0079           0
   23708 O1   90   DMPC C213 CTL2  -0.180000       12.0107           0
   23709 O1   90   DMPC H13R HAL2   0.090000        1.0079           0
   23710 O1   90   DMPC H13S HAL2   0.090000        1.0079           0
   23711 O1   90   DMPC C214 CTL3  -0.270000       12.0107           0
   23712 O1   90   DMPC H14R HAL3   0.090000        1.0079           0
   23713 O1   90   DMPC H14S HAL3   0.090000        1.0079           0
   23714 O1   90   DMPC H14T HAL3   0.090000        1.0079           0
   23715 O1   90   DMPC C33  CTL2  -0.180000       12.0107           0
   23716 O1   90   DMPC H3X  HAL2   0.090000        1.0079           0
   23717 O1   90   DMPC H3Y  HAL2   0.090000        1.0079           0
   23718 O1   90   DMPC C34  CTL2  -0.180000       12.0107           0
   23719 O1   90   DMPC H4X  HAL2   0.090000        1.0079           0
   23720 O1   90   DMPC H4Y  HAL2   0.090000        1.0079           0
   23721 O1   90   DMPC C35  CTL2  -0.180000       12.0107           0
   23722 O1   90   DMPC H5X  HAL2   0.090000        1.0079           0
   23723 O1   90   DMPC H5Y  HAL2   0.090000        1.0079           0
   23724 O1   90   DMPC C36  CTL2  -0.180000       12.0107           0
   23725 O1   90   DMPC H6X  HAL2   0.090000        1.0079           0
   23726 O1   90   DMPC H6Y  HAL2   0.090000        1.0079           0
   23727 O1   90   DMPC C37  CTL2  -0.180000       12.0107           0
   23728 O1   90   DMPC H7X  HAL2   0.090000        1.0079           0
   23729 O1   90   DMPC H7Y  HAL2   0.090000        1.0079           0
   23730 O1   90   DMPC C38  CTL2  -0.180000       12.0107           0
   23731 O1   90   DMPC H8X  HAL2   0.090000        1.0079           0
   23732 O1   90   DMPC H8Y  HAL2   0.090000        1.0079           0
   23733 O1   90   DMPC C39  CTL2  -0.180000       12.0107           0
   23734 O1   90   DMPC H9X  HAL2   0.090000        1.0079           0
   23735 O1   90   DMPC H9Y  HAL2   0.090000        1.0079           0
   23736 O1   90   DMPC C310 CTL2  -0.180000       12.0107           0
   23737 O1   90   DMPC H10X HAL2   0.090000        1.0079           0
   23738 O1   90   DMPC H10Y HAL2   0.090000        1.0079           0
   23739 O1   90   DMPC C311 CTL2  -0.180000       12.0107           0
   23740 O1   90   DMPC H11X HAL2   0.090000        1.0079           0
   23741 O1   90   DMPC H11Y HAL2   0.090000        1.0079           0
   23742 O1   90   DMPC C312 CTL2  -0.180000       12.0107           0
   23743 O1   90   DMPC H12X HAL2   0.090000        1.0079           0
   23744 O1   90   DMPC H12Y HAL2   0.090000        1.0079           0
   23745 O1   90   DMPC C313 CTL2  -0.180000       12.0107           0
   23746 O1   90   DMPC H13X HAL2   0.090000        1.0079           0
   23747 O1   90   DMPC H13Y HAL2   0.090000        1.0079           0
   23748 O1   90   DMPC C314 CTL3  -0.270000       12.0107           0
   23749 O1   90   DMPC H14X HAL3   0.090000        1.0079           0
   23750 O1   90   DMPC H14Y HAL3   0.090000        1.0079           0
   23751 O1   90   DMPC H14Z HAL3   0.090000        1.0079           0
   23752 O1   91   DMPC N    NTL   -0.600000       14.0067           0
   23753 O1   91   DMPC C13  CTL5  -0.350000       12.0107           0
   23754 O1   91   DMPC H13A HL     0.250000        1.0079           0
   23755 O1   91   DMPC H13B HL     0.250000        1.0079           0
   23756 O1   91   DMPC H13C HL     0.250000        1.0079           0
   23757 O1   91   DMPC C14  CTL5  -0.350000       12.0107           0
   23758 O1   91   DMPC H14A HL     0.250000        1.0079           0
   23759 O1   91   DMPC H14B HL     0.250000        1.0079           0
   23760 O1   91   DMPC H14C HL     0.250000        1.0079           0
   23761 O1   91   DMPC C15  CTL5  -0.350000       12.0107           0
   23762 O1   91   DMPC H15A HL     0.250000        1.0079           0
   23763 O1   91   DMPC H15B HL     0.250000        1.0079           0
   23764 O1   91   DMPC H15C HL     0.250000        1.0079           0
   23765 O1   91   DMPC C12  CTL2  -0.100000       12.0107           0
   23766 O1   91   DMPC H12A HL     0.250000        1.0079           0
   23767 O1   91   DMPC H12B HL     0.250000        1.0079           0
   23768 O1   91   DMPC C11  CTL2  -0.080000       12.0107           0
   23769 O1   91   DMPC H11A HAL2   0.090000        1.0079           0
   23770 O1   91   DMPC H11B HAL2   0.090000        1.0079           0
   23771 O1   91   DMPC P    PL     1.500000       30.9738           0
   23772 O1   91   DMPC O13  O2L   -0.780000       15.9994           0
   23773 O1   91   DMPC O14  O2L   -0.780000       15.9994           0
   23774 O1   91   DMPC O11  OSLP  -0.570000       15.9994           0
   23775 O1   91   DMPC O12  OSLP  -0.570000       15.9994           0
   23776 O1   91   DMPC C1   CTL2  -0.080000       12.0107           0
   23777 O1   91   DMPC HA   HAL2   0.090000        1.0079           0
   23778 O1   91   DMPC HB   HAL2   0.090000        1.0079           0
   23779 O1   91   DMPC C2   CTL1   0.170000       12.0107           0
   23780 O1   91   DMPC HS   HAL1   0.090000        1.0079           0
   23781 O1   91   DMPC O21  OSL   -0.490000       15.9994           0
   23782 O1   91   DMPC C21  CL     0.900000       12.0107           0
   23783 O1   91   DMPC O22  OBL   -0.630000       15.9994           0
   23784 O1   91   DMPC C22  CTL2  -0.220000       12.0107           0
   23785 O1   91   DMPC H2R  HAL2   0.090000        1.0079           0
   23786 O1   91   DMPC H2S  HAL2   0.090000        1.0079           0
   23787 O1   91   DMPC C3   CTL2   0.080000       12.0107           0
   23788 O1   91   DMPC HX   HAL2   0.090000        1.0079           0
   23789 O1   91   DMPC HY   HAL2   0.090000        1.0079           0
   23790 O1   91   DMPC O31  OSL   -0.490000       15.9994           0
   23791 O1   91   DMPC C31  CL     0.900000       12.0107           0
   23792 O1   91   DMPC O32  OBL   -0.630000       15.9994           0
   23793 O1   91   DMPC C32  CTL2  -0.220000       12.0107           0
   23794 O1   91   DMPC H2X  HAL2   0.090000        1.0079           0
   23795 O1   91   DMPC H2Y  HAL2   0.090000        1.0079           0
   23796 O1   91   DMPC C23  CTL2  -0.180000       12.0107           0
   23797 O1   91   DMPC H3R  HAL2   0.090000        1.0079           0
   23798 O1   91   DMPC H3S  HAL2   0.090000        1.0079           0
   23799 O1   91   DMPC C24  CTL2  -0.180000       12.0107           0
   23800 O1   91   DMPC H4R  HAL2   0.090000        1.0079           0
   23801 O1   91   DMPC H4S  HAL2   0.090000        1.0079           0
   23802 O1   91   DMPC C25  CTL2  -0.180000       12.0107           0
   23803 O1   91   DMPC H5R  HAL2   0.090000        1.0079           0
   23804 O1   91   DMPC H5S  HAL2   0.090000        1.0079           0
   23805 O1   91   DMPC C26  CTL2  -0.180000       12.0107           0
   23806 O1   91   DMPC H6R  HAL2   0.090000        1.0079           0
   23807 O1   91   DMPC H6S  HAL2   0.090000        1.0079           0
   23808 O1   91   DMPC C27  CTL2  -0.180000       12.0107           0
   23809 O1   91   DMPC H7R  HAL2   0.090000        1.0079           0
   23810 O1   91   DMPC H7S  HAL2   0.090000        1.0079           0
   23811 O1   91   DMPC C28  CTL2  -0.180000       12.0107           0
   23812 O1   91   DMPC H8R  HAL2   0.090000        1.0079           0
   23813 O1   91   DMPC H8S  HAL2   0.090000        1.0079           0
   23814 O1   91   DMPC C29  CTL2  -0.180000       12.0107           0
   23815 O1   91   DMPC H9R  HAL2   0.090000        1.0079           0
   23816 O1   91   DMPC H9S  HAL2   0.090000        1.0079           0
   23817 O1   91   DMPC C210 CTL2  -0.180000       12.0107           0
   23818 O1   91   DMPC H10R HAL2   0.090000        1.0079           0
   23819 O1   91   DMPC H10S HAL2   0.090000        1.0079           0
   23820 O1   91   DMPC C211 CTL2  -0.180000       12.0107           0
   23821 O1   91   DMPC H11R HAL2   0.090000        1.0079           0
   23822 O1   91   DMPC H11S HAL2   0.090000        1.0079           0
   23823 O1   91   DMPC C212 CTL2  -0.180000       12.0107           0
   23824 O1   91   DMPC H12R HAL2   0.090000        1.0079           0
   23825 O1   91   DMPC H12S HAL2   0.090000        1.0079           0
   23826 O1   91   DMPC C213 CTL2  -0.180000       12.0107           0
   23827 O1   91   DMPC H13R HAL2   0.090000        1.0079           0
   23828 O1   91   DMPC H13S HAL2   0.090000        1.0079           0
   23829 O1   91   DMPC C214 CTL3  -0.270000       12.0107           0
   23830 O1   91   DMPC H14R HAL3   0.090000        1.0079           0
   23831 O1   91   DMPC H14S HAL3   0.090000        1.0079           0
   23832 O1   91   DMPC H14T HAL3   0.090000        1.0079           0
   23833 O1   91   DMPC C33  CTL2  -0.180000       12.0107           0
   23834 O1   91   DMPC H3X  HAL2   0.090000        1.0079           0
   23835 O1   91   DMPC H3Y  HAL2   0.090000        1.0079           0
   23836 O1   91   DMPC C34  CTL2  -0.180000       12.0107           0
   23837 O1   91   DMPC H4X  HAL2   0.090000        1.0079           0
   23838 O1   91   DMPC H4Y  HAL2   0.090000        1.0079           0
   23839 O1   91   DMPC C35  CTL2  -0.180000       12.0107           0
   23840 O1   91   DMPC H5X  HAL2   0.090000        1.0079           0
   23841 O1   91   DMPC H5Y  HAL2   0.090000        1.0079           0
   23842 O1   91   DMPC C36  CTL2  -0.180000       12.0107           0
   23843 O1   91   DMPC H6X  HAL2   0.090000        1.0079           0
   23844 O1   91   DMPC H6Y  HAL2   0.090000        1.0079           0
   23845 O1   91   DMPC C37  CTL2  -0.180000       12.0107           0
   23846 O1   91   DMPC H7X  HAL2   0.090000        1.0079           0
   23847 O1   91   DMPC H7Y  HAL2   0.090000        1.0079           0
   23848 O1   91   DMPC C38  CTL2  -0.180000       12.0107           0
   23849 O1   91   DMPC H8X  HAL2   0.090000        1.0079           0
   23850 O1   91   DMPC H8Y  HAL2   0.090000        1.0079           0
   23851 O1   91   DMPC C39  CTL2  -0.180000       12.0107           0
   23852 O1   91   DMPC H9X  HAL2   0.090000        1.0079           0
   23853 O1   91   DMPC H9Y  HAL2   0.090000        1.0079           0
   23854 O1   91   DMPC C310 CTL2  -0.180000       12.0107           0
   23855 O1   91   DMPC H10X HAL2   0.090000        1.0079           0
   23856 O1   91   DMPC H10Y HAL2   0.090000        1.0079           0
   23857 O1   91   DMPC C311 CTL2  -0.180000       12.0107           0
   23858 O1   91   DMPC H11X HAL2   0.090000        1.0079           0
   23859 O1   91   DMPC H11Y HAL2   0.090000        1.0079           0
   23860 O1   91   DMPC C312 CTL2  -0.180000       12.0107           0
   23861 O1   91   DMPC H12X HAL2   0.090000        1.0079           0
   23862 O1   91   DMPC H12Y HAL2   0.090000        1.0079           0
   23863 O1   91   DMPC C313 CTL2  -0.180000       12.0107           0
   23864 O1   91   DMPC H13X HAL2   0.090000        1.0079           0
   23865 O1   91   DMPC H13Y HAL2   0.090000        1.0079           0
   23866 O1   91   DMPC C314 CTL3  -0.270000       12.0107           0
   23867 O1   91   DMPC H14X HAL3   0.090000        1.0079           0
   23868 O1   91   DMPC H14Y HAL3   0.090000        1.0079           0
   23869 O1   91   DMPC H14Z HAL3   0.090000        1.0079           0
   23870 O1   92   DMPC N    NTL   -0.600000       14.0067           0
   23871 O1   92   DMPC C13  CTL5  -0.350000       12.0107           0
   23872 O1   92   DMPC H13A HL     0.250000        1.0079           0
   23873 O1   92   DMPC H13B HL     0.250000        1.0079           0
   23874 O1   92   DMPC H13C HL     0.250000        1.0079           0
   23875 O1   92   DMPC C14  CTL5  -0.350000       12.0107           0
   23876 O1   92   DMPC H14A HL     0.250000        1.0079           0
   23877 O1   92   DMPC H14B HL     0.250000        1.0079           0
   23878 O1   92   DMPC H14C HL     0.250000        1.0079           0
   23879 O1   92   DMPC C15  CTL5  -0.350000       12.0107           0
   23880 O1   92   DMPC H15A HL     0.250000        1.0079           0
   23881 O1   92   DMPC H15B HL     0.250000        1.0079           0
   23882 O1   92   DMPC H15C HL     0.250000        1.0079           0
   23883 O1   92   DMPC C12  CTL2  -0.100000       12.0107           0
   23884 O1   92   DMPC H12A HL     0.250000        1.0079           0
   23885 O1   92   DMPC H12B HL     0.250000        1.0079           0
   23886 O1   92   DMPC C11  CTL2  -0.080000       12.0107           0
   23887 O1   92   DMPC H11A HAL2   0.090000        1.0079           0
   23888 O1   92   DMPC H11B HAL2   0.090000        1.0079           0
   23889 O1   92   DMPC P    PL     1.500000       30.9738           0
   23890 O1   92   DMPC O13  O2L   -0.780000       15.9994           0
   23891 O1   92   DMPC O14  O2L   -0.780000       15.9994           0
   23892 O1   92   DMPC O11  OSLP  -0.570000       15.9994           0
   23893 O1   92   DMPC O12  OSLP  -0.570000       15.9994           0
   23894 O1   92   DMPC C1   CTL2  -0.080000       12.0107           0
   23895 O1   92   DMPC HA   HAL2   0.090000        1.0079           0
   23896 O1   92   DMPC HB   HAL2   0.090000        1.0079           0
   23897 O1   92   DMPC C2   CTL1   0.170000       12.0107           0
   23898 O1   92   DMPC HS   HAL1   0.090000        1.0079           0
   23899 O1   92   DMPC O21  OSL   -0.490000       15.9994           0
   23900 O1   92   DMPC C21  CL     0.900000       12.0107           0
   23901 O1   92   DMPC O22  OBL   -0.630000       15.9994           0
   23902 O1   92   DMPC C22  CTL2  -0.220000       12.0107           0
   23903 O1   92   DMPC H2R  HAL2   0.090000        1.0079           0
   23904 O1   92   DMPC H2S  HAL2   0.090000        1.0079           0
   23905 O1   92   DMPC C3   CTL2   0.080000       12.0107           0
   23906 O1   92   DMPC HX   HAL2   0.090000        1.0079           0
   23907 O1   92   DMPC HY   HAL2   0.090000        1.0079           0
   23908 O1   92   DMPC O31  OSL   -0.490000       15.9994           0
   23909 O1   92   DMPC C31  CL     0.900000       12.0107           0
   23910 O1   92   DMPC O32  OBL   -0.630000       15.9994           0
   23911 O1   92   DMPC C32  CTL2  -0.220000       12.0107           0
   23912 O1   92   DMPC H2X  HAL2   0.090000        1.0079           0
   23913 O1   92   DMPC H2Y  HAL2   0.090000        1.0079           0
   23914 O1   92   DMPC C23  CTL2  -0.180000       12.0107           0
   23915 O1   92   DMPC H3R  HAL2   0.090000        1.0079           0
   23916 O1   92   DMPC H3S  HAL2   0.090000        1.0079           0
   23917 O1   92   DMPC C24  CTL2  -0.180000       12.0107           0
   23918 O1   92   DMPC H4R  HAL2   0.090000        1.0079           0
   23919 O1   92   DMPC H4S  HAL2   0.090000        1.0079           0
   23920 O1   92   DMPC C25  CTL2  -0.180000       12.0107           0
   23921 O1   92   DMPC H5R  HAL2   0.090000        1.0079           0
   23922 O1   92   DMPC H5S  HAL2   0.090000        1.0079           0
   23923 O1   92   DMPC C26  CTL2  -0.180000       12.0107           0
   23924 O1   92   DMPC H6R  HAL2   0.090000        1.0079           0
   23925 O1   92   DMPC H6S  HAL2   0.090000        1.0079           0
   23926 O1   92   DMPC C27  CTL2  -0.180000       12.0107           0
   23927 O1   92   DMPC H7R  HAL2   0.090000        1.0079           0
   23928 O1   92   DMPC H7S  HAL2   0.090000        1.0079           0
   23929 O1   92   DMPC C28  CTL2  -0.180000       12.0107           0
   23930 O1   92   DMPC H8R  HAL2   0.090000        1.0079           0
   23931 O1   92   DMPC H8S  HAL2   0.090000        1.0079           0
   23932 O1   92   DMPC C29  CTL2  -0.180000       12.0107           0
   23933 O1   92   DMPC H9R  HAL2   0.090000        1.0079           0
   23934 O1   92   DMPC H9S  HAL2   0.090000        1.0079           0
   23935 O1   92   DMPC C210 CTL2  -0.180000       12.0107           0
   23936 O1   92   DMPC H10R HAL2   0.090000        1.0079           0
   23937 O1   92   DMPC H10S HAL2   0.090000        1.0079           0
   23938 O1   92   DMPC C211 CTL2  -0.180000       12.0107           0
   23939 O1   92   DMPC H11R HAL2   0.090000        1.0079           0
   23940 O1   92   DMPC H11S HAL2   0.090000        1.0079           0
   23941 O1   92   DMPC C212 CTL2  -0.180000       12.0107           0
   23942 O1   92   DMPC H12R HAL2   0.090000        1.0079           0
   23943 O1   92   DMPC H12S HAL2   0.090000        1.0079           0
   23944 O1   92   DMPC C213 CTL2  -0.180000       12.0107           0
   23945 O1   92   DMPC H13R HAL2   0.090000        1.0079           0
   23946 O1   92   DMPC H13S HAL2   0.090000        1.0079           0
   23947 O1   92   DMPC C214 CTL3  -0.270000       12.0107           0
   23948 O1   92   DMPC H14R HAL3   0.090000        1.0079           0
   23949 O1   92   DMPC H14S HAL3   0.090000        1.0079           0
   23950 O1   92   DMPC H14T HAL3   0.090000        1.0079           0
   23951 O1   92   DMPC C33  CTL2  -0.180000       12.0107           0
   23952 O1   92   DMPC H3X  HAL2   0.090000        1.0079           0
   23953 O1   92   DMPC H3Y  HAL2   0.090000        1.0079           0
   23954 O1   92   DMPC C34  CTL2  -0.180000       12.0107           0
   23955 O1   92   DMPC H4X  HAL2   0.090000        1.0079           0
   23956 O1   92   DMPC H4Y  HAL2   0.090000        1.0079           0
   23957 O1   92   DMPC C35  CTL2  -0.180000       12.0107           0
   23958 O1   92   DMPC H5X  HAL2   0.090000        1.0079           0
   23959 O1   92   DMPC H5Y  HAL2   0.090000        1.0079           0
   23960 O1   92   DMPC C36  CTL2  -0.180000       12.0107           0
   23961 O1   92   DMPC H6X  HAL2   0.090000        1.0079           0
   23962 O1   92   DMPC H6Y  HAL2   0.090000        1.0079           0
   23963 O1   92   DMPC C37  CTL2  -0.180000       12.0107           0
   23964 O1   92   DMPC H7X  HAL2   0.090000        1.0079           0
   23965 O1   92   DMPC H7Y  HAL2   0.090000        1.0079           0
   23966 O1   92   DMPC C38  CTL2  -0.180000       12.0107           0
   23967 O1   92   DMPC H8X  HAL2   0.090000        1.0079           0
   23968 O1   92   DMPC H8Y  HAL2   0.090000        1.0079           0
   23969 O1   92   DMPC C39  CTL2  -0.180000       12.0107           0
   23970 O1   92   DMPC H9X  HAL2   0.090000        1.0079           0
   23971 O1   92   DMPC H9Y  HAL2   0.090000        1.0079           0
   23972 O1   92   DMPC C310 CTL2  -0.180000       12.0107           0
   23973 O1   92   DMPC H10X HAL2   0.090000        1.0079           0
   23974 O1   92   DMPC H10Y HAL2   0.090000        1.0079           0
   23975 O1   92   DMPC C311 CTL2  -0.180000       12.0107           0
   23976 O1   92   DMPC H11X HAL2   0.090000        1.0079           0
   23977 O1   92   DMPC H11Y HAL2   0.090000        1.0079           0
   23978 O1   92   DMPC C312 CTL2  -0.180000       12.0107           0
   23979 O1   92   DMPC H12X HAL2   0.090000        1.0079           0
   23980 O1   92   DMPC H12Y HAL2   0.090000        1.0079           0
   23981 O1   92   DMPC C313 CTL2  -0.180000       12.0107           0
   23982 O1   92   DMPC H13X HAL2   0.090000        1.0079           0
   23983 O1   92   DMPC H13Y HAL2   0.090000        1.0079           0
   23984 O1   92   DMPC C314 CTL3  -0.270000       12.0107           0
   23985 O1   92   DMPC H14X HAL3   0.090000        1.0079           0
   23986 O1   92   DMPC H14Y HAL3   0.090000        1.0079           0
   23987 O1   92   DMPC H14Z HAL3   0.090000        1.0079           0
   23988 O1   93   DMPC N    NTL   -0.600000       14.0067           0
   23989 O1   93   DMPC C13  CTL5  -0.350000       12.0107           0
   23990 O1   93   DMPC H13A HL     0.250000        1.0079           0
   23991 O1   93   DMPC H13B HL     0.250000        1.0079           0
   23992 O1   93   DMPC H13C HL     0.250000        1.0079           0
   23993 O1   93   DMPC C14  CTL5  -0.350000       12.0107           0
   23994 O1   93   DMPC H14A HL     0.250000        1.0079           0
   23995 O1   93   DMPC H14B HL     0.250000        1.0079           0
   23996 O1   93   DMPC H14C HL     0.250000        1.0079           0
   23997 O1   93   DMPC C15  CTL5  -0.350000       12.0107           0
   23998 O1   93   DMPC H15A HL     0.250000        1.0079           0
   23999 O1   93   DMPC H15B HL     0.250000        1.0079           0
   24000 O1   93   DMPC H15C HL     0.250000        1.0079           0
   24001 O1   93   DMPC C12  CTL2  -0.100000       12.0107           0
   24002 O1   93   DMPC H12A HL     0.250000        1.0079           0
   24003 O1   93   DMPC H12B HL     0.250000        1.0079           0
   24004 O1   93   DMPC C11  CTL2  -0.080000       12.0107           0
   24005 O1   93   DMPC H11A HAL2   0.090000        1.0079           0
   24006 O1   93   DMPC H11B HAL2   0.090000        1.0079           0
   24007 O1   93   DMPC P    PL     1.500000       30.9738           0
   24008 O1   93   DMPC O13  O2L   -0.780000       15.9994           0
   24009 O1   93   DMPC O14  O2L   -0.780000       15.9994           0
   24010 O1   93   DMPC O11  OSLP  -0.570000       15.9994           0
   24011 O1   93   DMPC O12  OSLP  -0.570000       15.9994           0
   24012 O1   93   DMPC C1   CTL2  -0.080000       12.0107           0
   24013 O1   93   DMPC HA   HAL2   0.090000        1.0079           0
   24014 O1   93   DMPC HB   HAL2   0.090000        1.0079           0
   24015 O1   93   DMPC C2   CTL1   0.170000       12.0107           0
   24016 O1   93   DMPC HS   HAL1   0.090000        1.0079           0
   24017 O1   93   DMPC O21  OSL   -0.490000       15.9994           0
   24018 O1   93   DMPC C21  CL     0.900000       12.0107           0
   24019 O1   93   DMPC O22  OBL   -0.630000       15.9994           0
   24020 O1   93   DMPC C22  CTL2  -0.220000       12.0107           0
   24021 O1   93   DMPC H2R  HAL2   0.090000        1.0079           0
   24022 O1   93   DMPC H2S  HAL2   0.090000        1.0079           0
   24023 O1   93   DMPC C3   CTL2   0.080000       12.0107           0
   24024 O1   93   DMPC HX   HAL2   0.090000        1.0079           0
   24025 O1   93   DMPC HY   HAL2   0.090000        1.0079           0
   24026 O1   93   DMPC O31  OSL   -0.490000       15.9994           0
   24027 O1   93   DMPC C31  CL     0.900000       12.0107           0
   24028 O1   93   DMPC O32  OBL   -0.630000       15.9994           0
   24029 O1   93   DMPC C32  CTL2  -0.220000       12.0107           0
   24030 O1   93   DMPC H2X  HAL2   0.090000        1.0079           0
   24031 O1   93   DMPC H2Y  HAL2   0.090000        1.0079           0
   24032 O1   93   DMPC C23  CTL2  -0.180000       12.0107           0
   24033 O1   93   DMPC H3R  HAL2   0.090000        1.0079           0
   24034 O1   93   DMPC H3S  HAL2   0.090000        1.0079           0
   24035 O1   93   DMPC C24  CTL2  -0.180000       12.0107           0
   24036 O1   93   DMPC H4R  HAL2   0.090000        1.0079           0
   24037 O1   93   DMPC H4S  HAL2   0.090000        1.0079           0
   24038 O1   93   DMPC C25  CTL2  -0.180000       12.0107           0
   24039 O1   93   DMPC H5R  HAL2   0.090000        1.0079           0
   24040 O1   93   DMPC H5S  HAL2   0.090000        1.0079           0
   24041 O1   93   DMPC C26  CTL2  -0.180000       12.0107           0
   24042 O1   93   DMPC H6R  HAL2   0.090000        1.0079           0
   24043 O1   93   DMPC H6S  HAL2   0.090000        1.0079           0
   24044 O1   93   DMPC C27  CTL2  -0.180000       12.0107           0
   24045 O1   93   DMPC H7R  HAL2   0.090000        1.0079           0
   24046 O1   93   DMPC H7S  HAL2   0.090000        1.0079           0
   24047 O1   93   DMPC C28  CTL2  -0.180000       12.0107           0
   24048 O1   93   DMPC H8R  HAL2   0.090000        1.0079           0
   24049 O1   93   DMPC H8S  HAL2   0.090000        1.0079           0
   24050 O1   93   DMPC C29  CTL2  -0.180000       12.0107           0
   24051 O1   93   DMPC H9R  HAL2   0.090000        1.0079           0
   24052 O1   93   DMPC H9S  HAL2   0.090000        1.0079           0
   24053 O1   93   DMPC C210 CTL2  -0.180000       12.0107           0
   24054 O1   93   DMPC H10R HAL2   0.090000        1.0079           0
   24055 O1   93   DMPC H10S HAL2   0.090000        1.0079           0
   24056 O1   93   DMPC C211 CTL2  -0.180000       12.0107           0
   24057 O1   93   DMPC H11R HAL2   0.090000        1.0079           0
   24058 O1   93   DMPC H11S HAL2   0.090000        1.0079           0
   24059 O1   93   DMPC C212 CTL2  -0.180000       12.0107           0
   24060 O1   93   DMPC H12R HAL2   0.090000        1.0079           0
   24061 O1   93   DMPC H12S HAL2   0.090000        1.0079           0
   24062 O1   93   DMPC C213 CTL2  -0.180000       12.0107           0
   24063 O1   93   DMPC H13R HAL2   0.090000        1.0079           0
   24064 O1   93   DMPC H13S HAL2   0.090000        1.0079           0
   24065 O1   93   DMPC C214 CTL3  -0.270000       12.0107           0
   24066 O1   93   DMPC H14R HAL3   0.090000        1.0079           0
   24067 O1   93   DMPC H14S HAL3   0.090000        1.0079           0
   24068 O1   93   DMPC H14T HAL3   0.090000        1.0079           0
   24069 O1   93   DMPC C33  CTL2  -0.180000       12.0107           0
   24070 O1   93   DMPC H3X  HAL2   0.090000        1.0079           0
   24071 O1   93   DMPC H3Y  HAL2   0.090000        1.0079           0
   24072 O1   93   DMPC C34  CTL2  -0.180000       12.0107           0
   24073 O1   93   DMPC H4X  HAL2   0.090000        1.0079           0
   24074 O1   93   DMPC H4Y  HAL2   0.090000        1.0079           0
   24075 O1   93   DMPC C35  CTL2  -0.180000       12.0107           0
   24076 O1   93   DMPC H5X  HAL2   0.090000        1.0079           0
   24077 O1   93   DMPC H5Y  HAL2   0.090000        1.0079           0
   24078 O1   93   DMPC C36  CTL2  -0.180000       12.0107           0
   24079 O1   93   DMPC H6X  HAL2   0.090000        1.0079           0
   24080 O1   93   DMPC H6Y  HAL2   0.090000        1.0079           0
   24081 O1   93   DMPC C37  CTL2  -0.180000       12.0107           0
   24082 O1   93   DMPC H7X  HAL2   0.090000        1.0079           0
   24083 O1   93   DMPC H7Y  HAL2   0.090000        1.0079           0
   24084 O1   93   DMPC C38  CTL2  -0.180000       12.0107           0
   24085 O1   93   DMPC H8X  HAL2   0.090000        1.0079           0
   24086 O1   93   DMPC H8Y  HAL2   0.090000        1.0079           0
   24087 O1   93   DMPC C39  CTL2  -0.180000       12.0107           0
   24088 O1   93   DMPC H9X  HAL2   0.090000        1.0079           0
   24089 O1   93   DMPC H9Y  HAL2   0.090000        1.0079           0
   24090 O1   93   DMPC C310 CTL2  -0.180000       12.0107           0
   24091 O1   93   DMPC H10X HAL2   0.090000        1.0079           0
   24092 O1   93   DMPC H10Y HAL2   0.090000        1.0079           0
   24093 O1   93   DMPC C311 CTL2  -0.180000       12.0107           0
   24094 O1   93   DMPC H11X HAL2   0.090000        1.0079           0
   24095 O1   93   DMPC H11Y HAL2   0.090000        1.0079           0
   24096 O1   93   DMPC C312 CTL2  -0.180000       12.0107           0
   24097 O1   93   DMPC H12X HAL2   0.090000        1.0079           0
   24098 O1   93   DMPC H12Y HAL2   0.090000        1.0079           0
   24099 O1   93   DMPC C313 CTL2  -0.180000       12.0107           0
   24100 O1   93   DMPC H13X HAL2   0.090000        1.0079           0
   24101 O1   93   DMPC H13Y HAL2   0.090000        1.0079           0
   24102 O1   93   DMPC C314 CTL3  -0.270000       12.0107           0
   24103 O1   93   DMPC H14X HAL3   0.090000        1.0079           0
   24104 O1   93   DMPC H14Y HAL3   0.090000        1.0079           0
   24105 O1   93   DMPC H14Z HAL3   0.090000        1.0079           0
   24106 O1   94   DMPC N    NTL   -0.600000       14.0067           0
   24107 O1   94   DMPC C13  CTL5  -0.350000       12.0107           0
   24108 O1   94   DMPC H13A HL     0.250000        1.0079           0
   24109 O1   94   DMPC H13B HL     0.250000        1.0079           0
   24110 O1   94   DMPC H13C HL     0.250000        1.0079           0
   24111 O1   94   DMPC C14  CTL5  -0.350000       12.0107           0
   24112 O1   94   DMPC H14A HL     0.250000        1.0079           0
   24113 O1   94   DMPC H14B HL     0.250000        1.0079           0
   24114 O1   94   DMPC H14C HL     0.250000        1.0079           0
   24115 O1   94   DMPC C15  CTL5  -0.350000       12.0107           0
   24116 O1   94   DMPC H15A HL     0.250000        1.0079           0
   24117 O1   94   DMPC H15B HL     0.250000        1.0079           0
   24118 O1   94   DMPC H15C HL     0.250000        1.0079           0
   24119 O1   94   DMPC C12  CTL2  -0.100000       12.0107           0
   24120 O1   94   DMPC H12A HL     0.250000        1.0079           0
   24121 O1   94   DMPC H12B HL     0.250000        1.0079           0
   24122 O1   94   DMPC C11  CTL2  -0.080000       12.0107           0
   24123 O1   94   DMPC H11A HAL2   0.090000        1.0079           0
   24124 O1   94   DMPC H11B HAL2   0.090000        1.0079           0
   24125 O1   94   DMPC P    PL     1.500000       30.9738           0
   24126 O1   94   DMPC O13  O2L   -0.780000       15.9994           0
   24127 O1   94   DMPC O14  O2L   -0.780000       15.9994           0
   24128 O1   94   DMPC O11  OSLP  -0.570000       15.9994           0
   24129 O1   94   DMPC O12  OSLP  -0.570000       15.9994           0
   24130 O1   94   DMPC C1   CTL2  -0.080000       12.0107           0
   24131 O1   94   DMPC HA   HAL2   0.090000        1.0079           0
   24132 O1   94   DMPC HB   HAL2   0.090000        1.0079           0
   24133 O1   94   DMPC C2   CTL1   0.170000       12.0107           0
   24134 O1   94   DMPC HS   HAL1   0.090000        1.0079           0
   24135 O1   94   DMPC O21  OSL   -0.490000       15.9994           0
   24136 O1   94   DMPC C21  CL     0.900000       12.0107           0
   24137 O1   94   DMPC O22  OBL   -0.630000       15.9994           0
   24138 O1   94   DMPC C22  CTL2  -0.220000       12.0107           0
   24139 O1   94   DMPC H2R  HAL2   0.090000        1.0079           0
   24140 O1   94   DMPC H2S  HAL2   0.090000        1.0079           0
   24141 O1   94   DMPC C3   CTL2   0.080000       12.0107           0
   24142 O1   94   DMPC HX   HAL2   0.090000        1.0079           0
   24143 O1   94   DMPC HY   HAL2   0.090000        1.0079           0
   24144 O1   94   DMPC O31  OSL   -0.490000       15.9994           0
   24145 O1   94   DMPC C31  CL     0.900000       12.0107           0
   24146 O1   94   DMPC O32  OBL   -0.630000       15.9994           0
   24147 O1   94   DMPC C32  CTL2  -0.220000       12.0107           0
   24148 O1   94   DMPC H2X  HAL2   0.090000        1.0079           0
   24149 O1   94   DMPC H2Y  HAL2   0.090000        1.0079           0
   24150 O1   94   DMPC C23  CTL2  -0.180000       12.0107           0
   24151 O1   94   DMPC H3R  HAL2   0.090000        1.0079           0
   24152 O1   94   DMPC H3S  HAL2   0.090000        1.0079           0
   24153 O1   94   DMPC C24  CTL2  -0.180000       12.0107           0
   24154 O1   94   DMPC H4R  HAL2   0.090000        1.0079           0
   24155 O1   94   DMPC H4S  HAL2   0.090000        1.0079           0
   24156 O1   94   DMPC C25  CTL2  -0.180000       12.0107           0
   24157 O1   94   DMPC H5R  HAL2   0.090000        1.0079           0
   24158 O1   94   DMPC H5S  HAL2   0.090000        1.0079           0
   24159 O1   94   DMPC C26  CTL2  -0.180000       12.0107           0
   24160 O1   94   DMPC H6R  HAL2   0.090000        1.0079           0
   24161 O1   94   DMPC H6S  HAL2   0.090000        1.0079           0
   24162 O1   94   DMPC C27  CTL2  -0.180000       12.0107           0
   24163 O1   94   DMPC H7R  HAL2   0.090000        1.0079           0
   24164 O1   94   DMPC H7S  HAL2   0.090000        1.0079           0
   24165 O1   94   DMPC C28  CTL2  -0.180000       12.0107           0
   24166 O1   94   DMPC H8R  HAL2   0.090000        1.0079           0
   24167 O1   94   DMPC H8S  HAL2   0.090000        1.0079           0
   24168 O1   94   DMPC C29  CTL2  -0.180000       12.0107           0
   24169 O1   94   DMPC H9R  HAL2   0.090000        1.0079           0
   24170 O1   94   DMPC H9S  HAL2   0.090000        1.0079           0
   24171 O1   94   DMPC C210 CTL2  -0.180000       12.0107           0
   24172 O1   94   DMPC H10R HAL2   0.090000        1.0079           0
   24173 O1   94   DMPC H10S HAL2   0.090000        1.0079           0
   24174 O1   94   DMPC C211 CTL2  -0.180000       12.0107           0
   24175 O1   94   DMPC H11R HAL2   0.090000        1.0079           0
   24176 O1   94   DMPC H11S HAL2   0.090000        1.0079           0
   24177 O1   94   DMPC C212 CTL2  -0.180000       12.0107           0
   24178 O1   94   DMPC H12R HAL2   0.090000        1.0079           0
   24179 O1   94   DMPC H12S HAL2   0.090000        1.0079           0
   24180 O1   94   DMPC C213 CTL2  -0.180000       12.0107           0
   24181 O1   94   DMPC H13R HAL2   0.090000        1.0079           0
   24182 O1   94   DMPC H13S HAL2   0.090000        1.0079           0
   24183 O1   94   DMPC C214 CTL3  -0.270000       12.0107           0
   24184 O1   94   DMPC H14R HAL3   0.090000        1.0079           0
   24185 O1   94   DMPC H14S HAL3   0.090000        1.0079           0
   24186 O1   94   DMPC H14T HAL3   0.090000        1.0079           0
   24187 O1   94   DMPC C33  CTL2  -0.180000       12.0107           0
   24188 O1   94   DMPC H3X  HAL2   0.090000        1.0079           0
   24189 O1   94   DMPC H3Y  HAL2   0.090000        1.0079           0
   24190 O1   94   DMPC C34  CTL2  -0.180000       12.0107           0
   24191 O1   94   DMPC H4X  HAL2   0.090000        1.0079           0
   24192 O1   94   DMPC H4Y  HAL2   0.090000        1.0079           0
   24193 O1   94   DMPC C35  CTL2  -0.180000       12.0107           0
   24194 O1   94   DMPC H5X  HAL2   0.090000        1.0079           0
   24195 O1   94   DMPC H5Y  HAL2   0.090000        1.0079           0
   24196 O1   94   DMPC C36  CTL2  -0.180000       12.0107           0
   24197 O1   94   DMPC H6X  HAL2   0.090000        1.0079           0
   24198 O1   94   DMPC H6Y  HAL2   0.090000        1.0079           0
   24199 O1   94   DMPC C37  CTL2  -0.180000       12.0107           0
   24200 O1   94   DMPC H7X  HAL2   0.090000        1.0079           0
   24201 O1   94   DMPC H7Y  HAL2   0.090000        1.0079           0
   24202 O1   94   DMPC C38  CTL2  -0.180000       12.0107           0
   24203 O1   94   DMPC H8X  HAL2   0.090000        1.0079           0
   24204 O1   94   DMPC H8Y  HAL2   0.090000        1.0079           0
   24205 O1   94   DMPC C39  CTL2  -0.180000       12.0107           0
   24206 O1   94   DMPC H9X  HAL2   0.090000        1.0079           0
   24207 O1   94   DMPC H9Y  HAL2   0.090000        1.0079           0
   24208 O1   94   DMPC C310 CTL2  -0.180000       12.0107           0
   24209 O1   94   DMPC H10X HAL2   0.090000        1.0079           0
   24210 O1   94   DMPC H10Y HAL2   0.090000        1.0079           0
   24211 O1   94   DMPC C311 CTL2  -0.180000       12.0107           0
   24212 O1   94   DMPC H11X HAL2   0.090000        1.0079           0
   24213 O1   94   DMPC H11Y HAL2   0.090000        1.0079           0
   24214 O1   94   DMPC C312 CTL2  -0.180000       12.0107           0
   24215 O1   94   DMPC H12X HAL2   0.090000        1.0079           0
   24216 O1   94   DMPC H12Y HAL2   0.090000        1.0079           0
   24217 O1   94   DMPC C313 CTL2  -0.180000       12.0107           0
   24218 O1   94   DMPC H13X HAL2   0.090000        1.0079           0
   24219 O1   94   DMPC H13Y HAL2   0.090000        1.0079           0
   24220 O1   94   DMPC C314 CTL3  -0.270000       12.0107           0
   24221 O1   94   DMPC H14X HAL3   0.090000        1.0079           0
   24222 O1   94   DMPC H14Y HAL3   0.090000        1.0079           0
   24223 O1   94   DMPC H14Z HAL3   0.090000        1.0079           0
   24224 O1   95   DMPC N    NTL   -0.600000       14.0067           0
   24225 O1   95   DMPC C13  CTL5  -0.350000       12.0107           0
   24226 O1   95   DMPC H13A HL     0.250000        1.0079           0
   24227 O1   95   DMPC H13B HL     0.250000        1.0079           0
   24228 O1   95   DMPC H13C HL     0.250000        1.0079           0
   24229 O1   95   DMPC C14  CTL5  -0.350000       12.0107           0
   24230 O1   95   DMPC H14A HL     0.250000        1.0079           0
   24231 O1   95   DMPC H14B HL     0.250000        1.0079           0
   24232 O1   95   DMPC H14C HL     0.250000        1.0079           0
   24233 O1   95   DMPC C15  CTL5  -0.350000       12.0107           0
   24234 O1   95   DMPC H15A HL     0.250000        1.0079           0
   24235 O1   95   DMPC H15B HL     0.250000        1.0079           0
   24236 O1   95   DMPC H15C HL     0.250000        1.0079           0
   24237 O1   95   DMPC C12  CTL2  -0.100000       12.0107           0
   24238 O1   95   DMPC H12A HL     0.250000        1.0079           0
   24239 O1   95   DMPC H12B HL     0.250000        1.0079           0
   24240 O1   95   DMPC C11  CTL2  -0.080000       12.0107           0
   24241 O1   95   DMPC H11A HAL2   0.090000        1.0079           0
   24242 O1   95   DMPC H11B HAL2   0.090000        1.0079           0
   24243 O1   95   DMPC P    PL     1.500000       30.9738           0
   24244 O1   95   DMPC O13  O2L   -0.780000       15.9994           0
   24245 O1   95   DMPC O14  O2L   -0.780000       15.9994           0
   24246 O1   95   DMPC O11  OSLP  -0.570000       15.9994           0
   24247 O1   95   DMPC O12  OSLP  -0.570000       15.9994           0
   24248 O1   95   DMPC C1   CTL2  -0.080000       12.0107           0
   24249 O1   95   DMPC HA   HAL2   0.090000        1.0079           0
   24250 O1   95   DMPC HB   HAL2   0.090000        1.0079           0
   24251 O1   95   DMPC C2   CTL1   0.170000       12.0107           0
   24252 O1   95   DMPC HS   HAL1   0.090000        1.0079           0
   24253 O1   95   DMPC O21  OSL   -0.490000       15.9994           0
   24254 O1   95   DMPC C21  CL     0.900000       12.0107           0
   24255 O1   95   DMPC O22  OBL   -0.630000       15.9994           0
   24256 O1   95   DMPC C22  CTL2  -0.220000       12.0107           0
   24257 O1   95   DMPC H2R  HAL2   0.090000        1.0079           0
   24258 O1   95   DMPC H2S  HAL2   0.090000        1.0079           0
   24259 O1   95   DMPC C3   CTL2   0.080000       12.0107           0
   24260 O1   95   DMPC HX   HAL2   0.090000        1.0079           0
   24261 O1   95   DMPC HY   HAL2   0.090000        1.0079           0
   24262 O1   95   DMPC O31  OSL   -0.490000       15.9994           0
   24263 O1   95   DMPC C31  CL     0.900000       12.0107           0
   24264 O1   95   DMPC O32  OBL   -0.630000       15.9994           0
   24265 O1   95   DMPC C32  CTL2  -0.220000       12.0107           0
   24266 O1   95   DMPC H2X  HAL2   0.090000        1.0079           0
   24267 O1   95   DMPC H2Y  HAL2   0.090000        1.0079           0
   24268 O1   95   DMPC C23  CTL2  -0.180000       12.0107           0
   24269 O1   95   DMPC H3R  HAL2   0.090000        1.0079           0
   24270 O1   95   DMPC H3S  HAL2   0.090000        1.0079           0
   24271 O1   95   DMPC C24  CTL2  -0.180000       12.0107           0
   24272 O1   95   DMPC H4R  HAL2   0.090000        1.0079           0
   24273 O1   95   DMPC H4S  HAL2   0.090000        1.0079           0
   24274 O1   95   DMPC C25  CTL2  -0.180000       12.0107           0
   24275 O1   95   DMPC H5R  HAL2   0.090000        1.0079           0
   24276 O1   95   DMPC H5S  HAL2   0.090000        1.0079           0
   24277 O1   95   DMPC C26  CTL2  -0.180000       12.0107           0
   24278 O1   95   DMPC H6R  HAL2   0.090000        1.0079           0
   24279 O1   95   DMPC H6S  HAL2   0.090000        1.0079           0
   24280 O1   95   DMPC C27  CTL2  -0.180000       12.0107           0
   24281 O1   95   DMPC H7R  HAL2   0.090000        1.0079           0
   24282 O1   95   DMPC H7S  HAL2   0.090000        1.0079           0
   24283 O1   95   DMPC C28  CTL2  -0.180000       12.0107           0
   24284 O1   95   DMPC H8R  HAL2   0.090000        1.0079           0
   24285 O1   95   DMPC H8S  HAL2   0.090000        1.0079           0
   24286 O1   95   DMPC C29  CTL2  -0.180000       12.0107           0
   24287 O1   95   DMPC H9R  HAL2   0.090000        1.0079           0
   24288 O1   95   DMPC H9S  HAL2   0.090000        1.0079           0
   24289 O1   95   DMPC C210 CTL2  -0.180000       12.0107           0
   24290 O1   95   DMPC H10R HAL2   0.090000        1.0079           0
   24291 O1   95   DMPC H10S HAL2   0.090000        1.0079           0
   24292 O1   95   DMPC C211 CTL2  -0.180000       12.0107           0
   24293 O1   95   DMPC H11R HAL2   0.090000        1.0079           0
   24294 O1   95   DMPC H11S HAL2   0.090000        1.0079           0
   24295 O1   95   DMPC C212 CTL2  -0.180000       12.0107           0
   24296 O1   95   DMPC H12R HAL2   0.090000        1.0079           0
   24297 O1   95   DMPC H12S HAL2   0.090000        1.0079           0
   24298 O1   95   DMPC C213 CTL2  -0.180000       12.0107           0
   24299 O1   95   DMPC H13R HAL2   0.090000        1.0079           0
   24300 O1   95   DMPC H13S HAL2   0.090000        1.0079           0
   24301 O1   95   DMPC C214 CTL3  -0.270000       12.0107           0
   24302 O1   95   DMPC H14R HAL3   0.090000        1.0079           0
   24303 O1   95   DMPC H14S HAL3   0.090000        1.0079           0
   24304 O1   95   DMPC H14T HAL3   0.090000        1.0079           0
   24305 O1   95   DMPC C33  CTL2  -0.180000       12.0107           0
   24306 O1   95   DMPC H3X  HAL2   0.090000        1.0079           0
   24307 O1   95   DMPC H3Y  HAL2   0.090000        1.0079           0
   24308 O1   95   DMPC C34  CTL2  -0.180000       12.0107           0
   24309 O1   95   DMPC H4X  HAL2   0.090000        1.0079           0
   24310 O1   95   DMPC H4Y  HAL2   0.090000        1.0079           0
   24311 O1   95   DMPC C35  CTL2  -0.180000       12.0107           0
   24312 O1   95   DMPC H5X  HAL2   0.090000        1.0079           0
   24313 O1   95   DMPC H5Y  HAL2   0.090000        1.0079           0
   24314 O1   95   DMPC C36  CTL2  -0.180000       12.0107           0
   24315 O1   95   DMPC H6X  HAL2   0.090000        1.0079           0
   24316 O1   95   DMPC H6Y  HAL2   0.090000        1.0079           0
   24317 O1   95   DMPC C37  CTL2  -0.180000       12.0107           0
   24318 O1   95   DMPC H7X  HAL2   0.090000        1.0079           0
   24319 O1   95   DMPC H7Y  HAL2   0.090000        1.0079           0
   24320 O1   95   DMPC C38  CTL2  -0.180000       12.0107           0
   24321 O1   95   DMPC H8X  HAL2   0.090000        1.0079           0
   24322 O1   95   DMPC H8Y  HAL2   0.090000        1.0079           0
   24323 O1   95   DMPC C39  CTL2  -0.180000       12.0107           0
   24324 O1   95   DMPC H9X  HAL2   0.090000        1.0079           0
   24325 O1   95   DMPC H9Y  HAL2   0.090000        1.0079           0
   24326 O1   95   DMPC C310 CTL2  -0.180000       12.0107           0
   24327 O1   95   DMPC H10X HAL2   0.090000        1.0079           0
   24328 O1   95   DMPC H10Y HAL2   0.090000        1.0079           0
   24329 O1   95   DMPC C311 CTL2  -0.180000       12.0107           0
   24330 O1   95   DMPC H11X HAL2   0.090000        1.0079           0
   24331 O1   95   DMPC H11Y HAL2   0.090000        1.0079           0
   24332 O1   95   DMPC C312 CTL2  -0.180000       12.0107           0
   24333 O1   95   DMPC H12X HAL2   0.090000        1.0079           0
   24334 O1   95   DMPC H12Y HAL2   0.090000        1.0079           0
   24335 O1   95   DMPC C313 CTL2  -0.180000       12.0107           0
   24336 O1   95   DMPC H13X HAL2   0.090000        1.0079           0
   24337 O1   95   DMPC H13Y HAL2   0.090000        1.0079           0
   24338 O1   95   DMPC C314 CTL3  -0.270000       12.0107           0
   24339 O1   95   DMPC H14X HAL3   0.090000        1.0079           0
   24340 O1   95   DMPC H14Y HAL3   0.090000        1.0079           0
   24341 O1   95   DMPC H14Z HAL3   0.090000        1.0079           0
   24342 O1   96   DMPC N    NTL   -0.600000       14.0067           0
   24343 O1   96   DMPC C13  CTL5  -0.350000       12.0107           0
   24344 O1   96   DMPC H13A HL     0.250000        1.0079           0
   24345 O1   96   DMPC H13B HL     0.250000        1.0079           0
   24346 O1   96   DMPC H13C HL     0.250000        1.0079           0
   24347 O1   96   DMPC C14  CTL5  -0.350000       12.0107           0
   24348 O1   96   DMPC H14A HL     0.250000        1.0079           0
   24349 O1   96   DMPC H14B HL     0.250000        1.0079           0
   24350 O1   96   DMPC H14C HL     0.250000        1.0079           0
   24351 O1   96   DMPC C15  CTL5  -0.350000       12.0107           0
   24352 O1   96   DMPC H15A HL     0.250000        1.0079           0
   24353 O1   96   DMPC H15B HL     0.250000        1.0079           0
   24354 O1   96   DMPC H15C HL     0.250000        1.0079           0
   24355 O1   96   DMPC C12  CTL2  -0.100000       12.0107           0
   24356 O1   96   DMPC H12A HL     0.250000        1.0079           0
   24357 O1   96   DMPC H12B HL     0.250000        1.0079           0
   24358 O1   96   DMPC C11  CTL2  -0.080000       12.0107           0
   24359 O1   96   DMPC H11A HAL2   0.090000        1.0079           0
   24360 O1   96   DMPC H11B HAL2   0.090000        1.0079           0
   24361 O1   96   DMPC P    PL     1.500000       30.9738           0
   24362 O1   96   DMPC O13  O2L   -0.780000       15.9994           0
   24363 O1   96   DMPC O14  O2L   -0.780000       15.9994           0
   24364 O1   96   DMPC O11  OSLP  -0.570000       15.9994           0
   24365 O1   96   DMPC O12  OSLP  -0.570000       15.9994           0
   24366 O1   96   DMPC C1   CTL2  -0.080000       12.0107           0
   24367 O1   96   DMPC HA   HAL2   0.090000        1.0079           0
   24368 O1   96   DMPC HB   HAL2   0.090000        1.0079           0
   24369 O1   96   DMPC C2   CTL1   0.170000       12.0107           0
   24370 O1   96   DMPC HS   HAL1   0.090000        1.0079           0
   24371 O1   96   DMPC O21  OSL   -0.490000       15.9994           0
   24372 O1   96   DMPC C21  CL     0.900000       12.0107           0
   24373 O1   96   DMPC O22  OBL   -0.630000       15.9994           0
   24374 O1   96   DMPC C22  CTL2  -0.220000       12.0107           0
   24375 O1   96   DMPC H2R  HAL2   0.090000        1.0079           0
   24376 O1   96   DMPC H2S  HAL2   0.090000        1.0079           0
   24377 O1   96   DMPC C3   CTL2   0.080000       12.0107           0
   24378 O1   96   DMPC HX   HAL2   0.090000        1.0079           0
   24379 O1   96   DMPC HY   HAL2   0.090000        1.0079           0
   24380 O1   96   DMPC O31  OSL   -0.490000       15.9994           0
   24381 O1   96   DMPC C31  CL     0.900000       12.0107           0
   24382 O1   96   DMPC O32  OBL   -0.630000       15.9994           0
   24383 O1   96   DMPC C32  CTL2  -0.220000       12.0107           0
   24384 O1   96   DMPC H2X  HAL2   0.090000        1.0079           0
   24385 O1   96   DMPC H2Y  HAL2   0.090000        1.0079           0
   24386 O1   96   DMPC C23  CTL2  -0.180000       12.0107           0
   24387 O1   96   DMPC H3R  HAL2   0.090000        1.0079           0
   24388 O1   96   DMPC H3S  HAL2   0.090000        1.0079           0
   24389 O1   96   DMPC C24  CTL2  -0.180000       12.0107           0
   24390 O1   96   DMPC H4R  HAL2   0.090000        1.0079           0
   24391 O1   96   DMPC H4S  HAL2   0.090000        1.0079           0
   24392 O1   96   DMPC C25  CTL2  -0.180000       12.0107           0
   24393 O1   96   DMPC H5R  HAL2   0.090000        1.0079           0
   24394 O1   96   DMPC H5S  HAL2   0.090000        1.0079           0
   24395 O1   96   DMPC C26  CTL2  -0.180000       12.0107           0
   24396 O1   96   DMPC H6R  HAL2   0.090000        1.0079           0
   24397 O1   96   DMPC H6S  HAL2   0.090000        1.0079           0
   24398 O1   96   DMPC C27  CTL2  -0.180000       12.0107           0
   24399 O1   96   DMPC H7R  HAL2   0.090000        1.0079           0
   24400 O1   96   DMPC H7S  HAL2   0.090000        1.0079           0
   24401 O1   96   DMPC C28  CTL2  -0.180000       12.0107           0
   24402 O1   96   DMPC H8R  HAL2   0.090000        1.0079           0
   24403 O1   96   DMPC H8S  HAL2   0.090000        1.0079           0
   24404 O1   96   DMPC C29  CTL2  -0.180000       12.0107           0
   24405 O1   96   DMPC H9R  HAL2   0.090000        1.0079           0
   24406 O1   96   DMPC H9S  HAL2   0.090000        1.0079           0
   24407 O1   96   DMPC C210 CTL2  -0.180000       12.0107           0
   24408 O1   96   DMPC H10R HAL2   0.090000        1.0079           0
   24409 O1   96   DMPC H10S HAL2   0.090000        1.0079           0
   24410 O1   96   DMPC C211 CTL2  -0.180000       12.0107           0
   24411 O1   96   DMPC H11R HAL2   0.090000        1.0079           0
   24412 O1   96   DMPC H11S HAL2   0.090000        1.0079           0
   24413 O1   96   DMPC C212 CTL2  -0.180000       12.0107           0
   24414 O1   96   DMPC H12R HAL2   0.090000        1.0079           0
   24415 O1   96   DMPC H12S HAL2   0.090000        1.0079           0
   24416 O1   96   DMPC C213 CTL2  -0.180000       12.0107           0
   24417 O1   96   DMPC H13R HAL2   0.090000        1.0079           0
   24418 O1   96   DMPC H13S HAL2   0.090000        1.0079           0
   24419 O1   96   DMPC C214 CTL3  -0.270000       12.0107           0
   24420 O1   96   DMPC H14R HAL3   0.090000        1.0079           0
   24421 O1   96   DMPC H14S HAL3   0.090000        1.0079           0
   24422 O1   96   DMPC H14T HAL3   0.090000        1.0079           0
   24423 O1   96   DMPC C33  CTL2  -0.180000       12.0107           0
   24424 O1   96   DMPC H3X  HAL2   0.090000        1.0079           0
   24425 O1   96   DMPC H3Y  HAL2   0.090000        1.0079           0
   24426 O1   96   DMPC C34  CTL2  -0.180000       12.0107           0
   24427 O1   96   DMPC H4X  HAL2   0.090000        1.0079           0
   24428 O1   96   DMPC H4Y  HAL2   0.090000        1.0079           0
   24429 O1   96   DMPC C35  CTL2  -0.180000       12.0107           0
   24430 O1   96   DMPC H5X  HAL2   0.090000        1.0079           0
   24431 O1   96   DMPC H5Y  HAL2   0.090000        1.0079           0
   24432 O1   96   DMPC C36  CTL2  -0.180000       12.0107           0
   24433 O1   96   DMPC H6X  HAL2   0.090000        1.0079           0
   24434 O1   96   DMPC H6Y  HAL2   0.090000        1.0079           0
   24435 O1   96   DMPC C37  CTL2  -0.180000       12.0107           0
   24436 O1   96   DMPC H7X  HAL2   0.090000        1.0079           0
   24437 O1   96   DMPC H7Y  HAL2   0.090000        1.0079           0
   24438 O1   96   DMPC C38  CTL2  -0.180000       12.0107           0
   24439 O1   96   DMPC H8X  HAL2   0.090000        1.0079           0
   24440 O1   96   DMPC H8Y  HAL2   0.090000        1.0079           0
   24441 O1   96   DMPC C39  CTL2  -0.180000       12.0107           0
   24442 O1   96   DMPC H9X  HAL2   0.090000        1.0079           0
   24443 O1   96   DMPC H9Y  HAL2   0.090000        1.0079           0
   24444 O1   96   DMPC C310 CTL2  -0.180000       12.0107           0
   24445 O1   96   DMPC H10X HAL2   0.090000        1.0079           0
   24446 O1   96   DMPC H10Y HAL2   0.090000        1.0079           0
   24447 O1   96   DMPC C311 CTL2  -0.180000       12.0107           0
   24448 O1   96   DMPC H11X HAL2   0.090000        1.0079           0
   24449 O1   96   DMPC H11Y HAL2   0.090000        1.0079           0
   24450 O1   96   DMPC C312 CTL2  -0.180000       12.0107           0
   24451 O1   96   DMPC H12X HAL2   0.090000        1.0079           0
   24452 O1   96   DMPC H12Y HAL2   0.090000        1.0079           0
   24453 O1   96   DMPC C313 CTL2  -0.180000       12.0107           0
   24454 O1   96   DMPC H13X HAL2   0.090000        1.0079           0
   24455 O1   96   DMPC H13Y HAL2   0.090000        1.0079           0
   24456 O1   96   DMPC C314 CTL3  -0.270000       12.0107           0
   24457 O1   96   DMPC H14X HAL3   0.090000        1.0079           0
   24458 O1   96   DMPC H14Y HAL3   0.090000        1.0079           0
   24459 O1   96   DMPC H14Z HAL3   0.090000        1.0079           0
   24460 O1   97   DMPC N    NTL   -0.600000       14.0067           0
   24461 O1   97   DMPC C13  CTL5  -0.350000       12.0107           0
   24462 O1   97   DMPC H13A HL     0.250000        1.0079           0
   24463 O1   97   DMPC H13B HL     0.250000        1.0079           0
   24464 O1   97   DMPC H13C HL     0.250000        1.0079           0
   24465 O1   97   DMPC C14  CTL5  -0.350000       12.0107           0
   24466 O1   97   DMPC H14A HL     0.250000        1.0079           0
   24467 O1   97   DMPC H14B HL     0.250000        1.0079           0
   24468 O1   97   DMPC H14C HL     0.250000        1.0079           0
   24469 O1   97   DMPC C15  CTL5  -0.350000       12.0107           0
   24470 O1   97   DMPC H15A HL     0.250000        1.0079           0
   24471 O1   97   DMPC H15B HL     0.250000        1.0079           0
   24472 O1   97   DMPC H15C HL     0.250000        1.0079           0
   24473 O1   97   DMPC C12  CTL2  -0.100000       12.0107           0
   24474 O1   97   DMPC H12A HL     0.250000        1.0079           0
   24475 O1   97   DMPC H12B HL     0.250000        1.0079           0
   24476 O1   97   DMPC C11  CTL2  -0.080000       12.0107           0
   24477 O1   97   DMPC H11A HAL2   0.090000        1.0079           0
   24478 O1   97   DMPC H11B HAL2   0.090000        1.0079           0
   24479 O1   97   DMPC P    PL     1.500000       30.9738           0
   24480 O1   97   DMPC O13  O2L   -0.780000       15.9994           0
   24481 O1   97   DMPC O14  O2L   -0.780000       15.9994           0
   24482 O1   97   DMPC O11  OSLP  -0.570000       15.9994           0
   24483 O1   97   DMPC O12  OSLP  -0.570000       15.9994           0
   24484 O1   97   DMPC C1   CTL2  -0.080000       12.0107           0
   24485 O1   97   DMPC HA   HAL2   0.090000        1.0079           0
   24486 O1   97   DMPC HB   HAL2   0.090000        1.0079           0
   24487 O1   97   DMPC C2   CTL1   0.170000       12.0107           0
   24488 O1   97   DMPC HS   HAL1   0.090000        1.0079           0
   24489 O1   97   DMPC O21  OSL   -0.490000       15.9994           0
   24490 O1   97   DMPC C21  CL     0.900000       12.0107           0
   24491 O1   97   DMPC O22  OBL   -0.630000       15.9994           0
   24492 O1   97   DMPC C22  CTL2  -0.220000       12.0107           0
   24493 O1   97   DMPC H2R  HAL2   0.090000        1.0079           0
   24494 O1   97   DMPC H2S  HAL2   0.090000        1.0079           0
   24495 O1   97   DMPC C3   CTL2   0.080000       12.0107           0
   24496 O1   97   DMPC HX   HAL2   0.090000        1.0079           0
   24497 O1   97   DMPC HY   HAL2   0.090000        1.0079           0
   24498 O1   97   DMPC O31  OSL   -0.490000       15.9994           0
   24499 O1   97   DMPC C31  CL     0.900000       12.0107           0
   24500 O1   97   DMPC O32  OBL   -0.630000       15.9994           0
   24501 O1   97   DMPC C32  CTL2  -0.220000       12.0107           0
   24502 O1   97   DMPC H2X  HAL2   0.090000        1.0079           0
   24503 O1   97   DMPC H2Y  HAL2   0.090000        1.0079           0
   24504 O1   97   DMPC C23  CTL2  -0.180000       12.0107           0
   24505 O1   97   DMPC H3R  HAL2   0.090000        1.0079           0
   24506 O1   97   DMPC H3S  HAL2   0.090000        1.0079           0
   24507 O1   97   DMPC C24  CTL2  -0.180000       12.0107           0
   24508 O1   97   DMPC H4R  HAL2   0.090000        1.0079           0
   24509 O1   97   DMPC H4S  HAL2   0.090000        1.0079           0
   24510 O1   97   DMPC C25  CTL2  -0.180000       12.0107           0
   24511 O1   97   DMPC H5R  HAL2   0.090000        1.0079           0
   24512 O1   97   DMPC H5S  HAL2   0.090000        1.0079           0
   24513 O1   97   DMPC C26  CTL2  -0.180000       12.0107           0
   24514 O1   97   DMPC H6R  HAL2   0.090000        1.0079           0
   24515 O1   97   DMPC H6S  HAL2   0.090000        1.0079           0
   24516 O1   97   DMPC C27  CTL2  -0.180000       12.0107           0
   24517 O1   97   DMPC H7R  HAL2   0.090000        1.0079           0
   24518 O1   97   DMPC H7S  HAL2   0.090000        1.0079           0
   24519 O1   97   DMPC C28  CTL2  -0.180000       12.0107           0
   24520 O1   97   DMPC H8R  HAL2   0.090000        1.0079           0
   24521 O1   97   DMPC H8S  HAL2   0.090000        1.0079           0
   24522 O1   97   DMPC C29  CTL2  -0.180000       12.0107           0
   24523 O1   97   DMPC H9R  HAL2   0.090000        1.0079           0
   24524 O1   97   DMPC H9S  HAL2   0.090000        1.0079           0
   24525 O1   97   DMPC C210 CTL2  -0.180000       12.0107           0
   24526 O1   97   DMPC H10R HAL2   0.090000        1.0079           0
   24527 O1   97   DMPC H10S HAL2   0.090000        1.0079           0
   24528 O1   97   DMPC C211 CTL2  -0.180000       12.0107           0
   24529 O1   97   DMPC H11R HAL2   0.090000        1.0079           0
   24530 O1   97   DMPC H11S HAL2   0.090000        1.0079           0
   24531 O1   97   DMPC C212 CTL2  -0.180000       12.0107           0
   24532 O1   97   DMPC H12R HAL2   0.090000        1.0079           0
   24533 O1   97   DMPC H12S HAL2   0.090000        1.0079           0
   24534 O1   97   DMPC C213 CTL2  -0.180000       12.0107           0
   24535 O1   97   DMPC H13R HAL2   0.090000        1.0079           0
   24536 O1   97   DMPC H13S HAL2   0.090000        1.0079           0
   24537 O1   97   DMPC C214 CTL3  -0.270000       12.0107           0
   24538 O1   97   DMPC H14R HAL3   0.090000        1.0079           0
   24539 O1   97   DMPC H14S HAL3   0.090000        1.0079           0
   24540 O1   97   DMPC H14T HAL3   0.090000        1.0079           0
   24541 O1   97   DMPC C33  CTL2  -0.180000       12.0107           0
   24542 O1   97   DMPC H3X  HAL2   0.090000        1.0079           0
   24543 O1   97   DMPC H3Y  HAL2   0.090000        1.0079           0
   24544 O1   97   DMPC C34  CTL2  -0.180000       12.0107           0
   24545 O1   97   DMPC H4X  HAL2   0.090000        1.0079           0
   24546 O1   97   DMPC H4Y  HAL2   0.090000        1.0079           0
   24547 O1   97   DMPC C35  CTL2  -0.180000       12.0107           0
   24548 O1   97   DMPC H5X  HAL2   0.090000        1.0079           0
   24549 O1   97   DMPC H5Y  HAL2   0.090000        1.0079           0
   24550 O1   97   DMPC C36  CTL2  -0.180000       12.0107           0
   24551 O1   97   DMPC H6X  HAL2   0.090000        1.0079           0
   24552 O1   97   DMPC H6Y  HAL2   0.090000        1.0079           0
   24553 O1   97   DMPC C37  CTL2  -0.180000       12.0107           0
   24554 O1   97   DMPC H7X  HAL2   0.090000        1.0079           0
   24555 O1   97   DMPC H7Y  HAL2   0.090000        1.0079           0
   24556 O1   97   DMPC C38  CTL2  -0.180000       12.0107           0
   24557 O1   97   DMPC H8X  HAL2   0.090000        1.0079           0
   24558 O1   97   DMPC H8Y  HAL2   0.090000        1.0079           0
   24559 O1   97   DMPC C39  CTL2  -0.180000       12.0107           0
   24560 O1   97   DMPC H9X  HAL2   0.090000        1.0079           0
   24561 O1   97   DMPC H9Y  HAL2   0.090000        1.0079           0
   24562 O1   97   DMPC C310 CTL2  -0.180000       12.0107           0
   24563 O1   97   DMPC H10X HAL2   0.090000        1.0079           0
   24564 O1   97   DMPC H10Y HAL2   0.090000        1.0079           0
   24565 O1   97   DMPC C311 CTL2  -0.180000       12.0107           0
   24566 O1   97   DMPC H11X HAL2   0.090000        1.0079           0
   24567 O1   97   DMPC H11Y HAL2   0.090000        1.0079           0
   24568 O1   97   DMPC C312 CTL2  -0.180000       12.0107           0
   24569 O1   97   DMPC H12X HAL2   0.090000        1.0079           0
   24570 O1   97   DMPC H12Y HAL2   0.090000        1.0079           0
   24571 O1   97   DMPC C313 CTL2  -0.180000       12.0107           0
   24572 O1   97   DMPC H13X HAL2   0.090000        1.0079           0
   24573 O1   97   DMPC H13Y HAL2   0.090000        1.0079           0
   24574 O1   97   DMPC C314 CTL3  -0.270000       12.0107           0
   24575 O1   97   DMPC H14X HAL3   0.090000        1.0079           0
   24576 O1   97   DMPC H14Y HAL3   0.090000        1.0079           0
   24577 O1   97   DMPC H14Z HAL3   0.090000        1.0079           0
   24578 O1   98   DMPC N    NTL   -0.600000       14.0067           0
   24579 O1   98   DMPC C13  CTL5  -0.350000       12.0107           0
   24580 O1   98   DMPC H13A HL     0.250000        1.0079           0
   24581 O1   98   DMPC H13B HL     0.250000        1.0079           0
   24582 O1   98   DMPC H13C HL     0.250000        1.0079           0
   24583 O1   98   DMPC C14  CTL5  -0.350000       12.0107           0
   24584 O1   98   DMPC H14A HL     0.250000        1.0079           0
   24585 O1   98   DMPC H14B HL     0.250000        1.0079           0
   24586 O1   98   DMPC H14C HL     0.250000        1.0079           0
   24587 O1   98   DMPC C15  CTL5  -0.350000       12.0107           0
   24588 O1   98   DMPC H15A HL     0.250000        1.0079           0
   24589 O1   98   DMPC H15B HL     0.250000        1.0079           0
   24590 O1   98   DMPC H15C HL     0.250000        1.0079           0
   24591 O1   98   DMPC C12  CTL2  -0.100000       12.0107           0
   24592 O1   98   DMPC H12A HL     0.250000        1.0079           0
   24593 O1   98   DMPC H12B HL     0.250000        1.0079           0
   24594 O1   98   DMPC C11  CTL2  -0.080000       12.0107           0
   24595 O1   98   DMPC H11A HAL2   0.090000        1.0079           0
   24596 O1   98   DMPC H11B HAL2   0.090000        1.0079           0
   24597 O1   98   DMPC P    PL     1.500000       30.9738           0
   24598 O1   98   DMPC O13  O2L   -0.780000       15.9994           0
   24599 O1   98   DMPC O14  O2L   -0.780000       15.9994           0
   24600 O1   98   DMPC O11  OSLP  -0.570000       15.9994           0
   24601 O1   98   DMPC O12  OSLP  -0.570000       15.9994           0
   24602 O1   98   DMPC C1   CTL2  -0.080000       12.0107           0
   24603 O1   98   DMPC HA   HAL2   0.090000        1.0079           0
   24604 O1   98   DMPC HB   HAL2   0.090000        1.0079           0
   24605 O1   98   DMPC C2   CTL1   0.170000       12.0107           0
   24606 O1   98   DMPC HS   HAL1   0.090000        1.0079           0
   24607 O1   98   DMPC O21  OSL   -0.490000       15.9994           0
   24608 O1   98   DMPC C21  CL     0.900000       12.0107           0
   24609 O1   98   DMPC O22  OBL   -0.630000       15.9994           0
   24610 O1   98   DMPC C22  CTL2  -0.220000       12.0107           0
   24611 O1   98   DMPC H2R  HAL2   0.090000        1.0079           0
   24612 O1   98   DMPC H2S  HAL2   0.090000        1.0079           0
   24613 O1   98   DMPC C3   CTL2   0.080000       12.0107           0
   24614 O1   98   DMPC HX   HAL2   0.090000        1.0079           0
   24615 O1   98   DMPC HY   HAL2   0.090000        1.0079           0
   24616 O1   98   DMPC O31  OSL   -0.490000       15.9994           0
   24617 O1   98   DMPC C31  CL     0.900000       12.0107           0
   24618 O1   98   DMPC O32  OBL   -0.630000       15.9994           0
   24619 O1   98   DMPC C32  CTL2  -0.220000       12.0107           0
   24620 O1   98   DMPC H2X  HAL2   0.090000        1.0079           0
   24621 O1   98   DMPC H2Y  HAL2   0.090000        1.0079           0
   24622 O1   98   DMPC C23  CTL2  -0.180000       12.0107           0
   24623 O1   98   DMPC H3R  HAL2   0.090000        1.0079           0
   24624 O1   98   DMPC H3S  HAL2   0.090000        1.0079           0
   24625 O1   98   DMPC C24  CTL2  -0.180000       12.0107           0
   24626 O1   98   DMPC H4R  HAL2   0.090000        1.0079           0
   24627 O1   98   DMPC H4S  HAL2   0.090000        1.0079           0
   24628 O1   98   DMPC C25  CTL2  -0.180000       12.0107           0
   24629 O1   98   DMPC H5R  HAL2   0.090000        1.0079           0
   24630 O1   98   DMPC H5S  HAL2   0.090000        1.0079           0
   24631 O1   98   DMPC C26  CTL2  -0.180000       12.0107           0
   24632 O1   98   DMPC H6R  HAL2   0.090000        1.0079           0
   24633 O1   98   DMPC H6S  HAL2   0.090000        1.0079           0
   24634 O1   98   DMPC C27  CTL2  -0.180000       12.0107           0
   24635 O1   98   DMPC H7R  HAL2   0.090000        1.0079           0
   24636 O1   98   DMPC H7S  HAL2   0.090000        1.0079           0
   24637 O1   98   DMPC C28  CTL2  -0.180000       12.0107           0
   24638 O1   98   DMPC H8R  HAL2   0.090000        1.0079           0
   24639 O1   98   DMPC H8S  HAL2   0.090000        1.0079           0
   24640 O1   98   DMPC C29  CTL2  -0.180000       12.0107           0
   24641 O1   98   DMPC H9R  HAL2   0.090000        1.0079           0
   24642 O1   98   DMPC H9S  HAL2   0.090000        1.0079           0
   24643 O1   98   DMPC C210 CTL2  -0.180000       12.0107           0
   24644 O1   98   DMPC H10R HAL2   0.090000        1.0079           0
   24645 O1   98   DMPC H10S HAL2   0.090000        1.0079           0
   24646 O1   98   DMPC C211 CTL2  -0.180000       12.0107           0
   24647 O1   98   DMPC H11R HAL2   0.090000        1.0079           0
   24648 O1   98   DMPC H11S HAL2   0.090000        1.0079           0
   24649 O1   98   DMPC C212 CTL2  -0.180000       12.0107           0
   24650 O1   98   DMPC H12R HAL2   0.090000        1.0079           0
   24651 O1   98   DMPC H12S HAL2   0.090000        1.0079           0
   24652 O1   98   DMPC C213 CTL2  -0.180000       12.0107           0
   24653 O1   98   DMPC H13R HAL2   0.090000        1.0079           0
   24654 O1   98   DMPC H13S HAL2   0.090000        1.0079           0
   24655 O1   98   DMPC C214 CTL3  -0.270000       12.0107           0
   24656 O1   98   DMPC H14R HAL3   0.090000        1.0079           0
   24657 O1   98   DMPC H14S HAL3   0.090000        1.0079           0
   24658 O1   98   DMPC H14T HAL3   0.090000        1.0079           0
   24659 O1   98   DMPC C33  CTL2  -0.180000       12.0107           0
   24660 O1   98   DMPC H3X  HAL2   0.090000        1.0079           0
   24661 O1   98   DMPC H3Y  HAL2   0.090000        1.0079           0
   24662 O1   98   DMPC C34  CTL2  -0.180000       12.0107           0
   24663 O1   98   DMPC H4X  HAL2   0.090000        1.0079           0
   24664 O1   98   DMPC H4Y  HAL2   0.090000        1.0079           0
   24665 O1   98   DMPC C35  CTL2  -0.180000       12.0107           0
   24666 O1   98   DMPC H5X  HAL2   0.090000        1.0079           0
   24667 O1   98   DMPC H5Y  HAL2   0.090000        1.0079           0
   24668 O1   98   DMPC C36  CTL2  -0.180000       12.0107           0
   24669 O1   98   DMPC H6X  HAL2   0.090000        1.0079           0
   24670 O1   98   DMPC H6Y  HAL2   0.090000        1.0079           0
   24671 O1   98   DMPC C37  CTL2  -0.180000       12.0107           0
   24672 O1   98   DMPC H7X  HAL2   0.090000        1.0079           0
   24673 O1   98   DMPC H7Y  HAL2   0.090000        1.0079           0
   24674 O1   98   DMPC C38  CTL2  -0.180000       12.0107           0
   24675 O1   98   DMPC H8X  HAL2   0.090000        1.0079           0
   24676 O1   98   DMPC H8Y  HAL2   0.090000        1.0079           0
   24677 O1   98   DMPC C39  CTL2  -0.180000       12.0107           0
   24678 O1   98   DMPC H9X  HAL2   0.090000        1.0079           0
   24679 O1   98   DMPC H9Y  HAL2   0.090000        1.0079           0
   24680 O1   98   DMPC C310 CTL2  -0.180000       12.0107           0
   24681 O1   98   DMPC H10X HAL2   0.090000        1.0079           0
   24682 O1   98   DMPC H10Y HAL2   0.090000        1.0079           0
   24683 O1   98   DMPC C311 CTL2  -0.180000       12.0107           0
   24684 O1   98   DMPC H11X HAL2   0.090000        1.0079           0
   24685 O1   98   DMPC H11Y HAL2   0.090000        1.0079           0
   24686 O1   98   DMPC C312 CTL2  -0.180000       12.0107           0
   24687 O1   98   DMPC H12X HAL2   0.090000        1.0079           0
   24688 O1   98   DMPC H12Y HAL2   0.090000        1.0079           0
   24689 O1   98   DMPC C313 CTL2  -0.180000       12.0107           0
   24690 O1   98   DMPC H13X HAL2   0.090000        1.0079           0
   24691 O1   98   DMPC H13Y HAL2   0.090000        1.0079           0
   24692 O1   98   DMPC C314 CTL3  -0.270000       12.0107           0
   24693 O1   98   DMPC H14X HAL3   0.090000        1.0079           0
   24694 O1   98   DMPC H14Y HAL3   0.090000        1.0079           0
   24695 O1   98   DMPC H14Z HAL3   0.090000        1.0079           0
   24696 O1   99   DMPC N    NTL   -0.600000       14.0067           0
   24697 O1   99   DMPC C13  CTL5  -0.350000       12.0107           0
   24698 O1   99   DMPC H13A HL     0.250000        1.0079           0
   24699 O1   99   DMPC H13B HL     0.250000        1.0079           0
   24700 O1   99   DMPC H13C HL     0.250000        1.0079           0
   24701 O1   99   DMPC C14  CTL5  -0.350000       12.0107           0
   24702 O1   99   DMPC H14A HL     0.250000        1.0079           0
   24703 O1   99   DMPC H14B HL     0.250000        1.0079           0
   24704 O1   99   DMPC H14C HL     0.250000        1.0079           0
   24705 O1   99   DMPC C15  CTL5  -0.350000       12.0107           0
   24706 O1   99   DMPC H15A HL     0.250000        1.0079           0
   24707 O1   99   DMPC H15B HL     0.250000        1.0079           0
   24708 O1   99   DMPC H15C HL     0.250000        1.0079           0
   24709 O1   99   DMPC C12  CTL2  -0.100000       12.0107           0
   24710 O1   99   DMPC H12A HL     0.250000        1.0079           0
   24711 O1   99   DMPC H12B HL     0.250000        1.0079           0
   24712 O1   99   DMPC C11  CTL2  -0.080000       12.0107           0
   24713 O1   99   DMPC H11A HAL2   0.090000        1.0079           0
   24714 O1   99   DMPC H11B HAL2   0.090000        1.0079           0
   24715 O1   99   DMPC P    PL     1.500000       30.9738           0
   24716 O1   99   DMPC O13  O2L   -0.780000       15.9994           0
   24717 O1   99   DMPC O14  O2L   -0.780000       15.9994           0
   24718 O1   99   DMPC O11  OSLP  -0.570000       15.9994           0
   24719 O1   99   DMPC O12  OSLP  -0.570000       15.9994           0
   24720 O1   99   DMPC C1   CTL2  -0.080000       12.0107           0
   24721 O1   99   DMPC HA   HAL2   0.090000        1.0079           0
   24722 O1   99   DMPC HB   HAL2   0.090000        1.0079           0
   24723 O1   99   DMPC C2   CTL1   0.170000       12.0107           0
   24724 O1   99   DMPC HS   HAL1   0.090000        1.0079           0
   24725 O1   99   DMPC O21  OSL   -0.490000       15.9994           0
   24726 O1   99   DMPC C21  CL     0.900000       12.0107           0
   24727 O1   99   DMPC O22  OBL   -0.630000       15.9994           0
   24728 O1   99   DMPC C22  CTL2  -0.220000       12.0107           0
   24729 O1   99   DMPC H2R  HAL2   0.090000        1.0079           0
   24730 O1   99   DMPC H2S  HAL2   0.090000        1.0079           0
   24731 O1   99   DMPC C3   CTL2   0.080000       12.0107           0
   24732 O1   99   DMPC HX   HAL2   0.090000        1.0079           0
   24733 O1   99   DMPC HY   HAL2   0.090000        1.0079           0
   24734 O1   99   DMPC O31  OSL   -0.490000       15.9994           0
   24735 O1   99   DMPC C31  CL     0.900000       12.0107           0
   24736 O1   99   DMPC O32  OBL   -0.630000       15.9994           0
   24737 O1   99   DMPC C32  CTL2  -0.220000       12.0107           0
   24738 O1   99   DMPC H2X  HAL2   0.090000        1.0079           0
   24739 O1   99   DMPC H2Y  HAL2   0.090000        1.0079           0
   24740 O1   99   DMPC C23  CTL2  -0.180000       12.0107           0
   24741 O1   99   DMPC H3R  HAL2   0.090000        1.0079           0
   24742 O1   99   DMPC H3S  HAL2   0.090000        1.0079           0
   24743 O1   99   DMPC C24  CTL2  -0.180000       12.0107           0
   24744 O1   99   DMPC H4R  HAL2   0.090000        1.0079           0
   24745 O1   99   DMPC H4S  HAL2   0.090000        1.0079           0
   24746 O1   99   DMPC C25  CTL2  -0.180000       12.0107           0
   24747 O1   99   DMPC H5R  HAL2   0.090000        1.0079           0
   24748 O1   99   DMPC H5S  HAL2   0.090000        1.0079           0
   24749 O1   99   DMPC C26  CTL2  -0.180000       12.0107           0
   24750 O1   99   DMPC H6R  HAL2   0.090000        1.0079           0
   24751 O1   99   DMPC H6S  HAL2   0.090000        1.0079           0
   24752 O1   99   DMPC C27  CTL2  -0.180000       12.0107           0
   24753 O1   99   DMPC H7R  HAL2   0.090000        1.0079           0
   24754 O1   99   DMPC H7S  HAL2   0.090000        1.0079           0
   24755 O1   99   DMPC C28  CTL2  -0.180000       12.0107           0
   24756 O1   99   DMPC H8R  HAL2   0.090000        1.0079           0
   24757 O1   99   DMPC H8S  HAL2   0.090000        1.0079           0
   24758 O1   99   DMPC C29  CTL2  -0.180000       12.0107           0
   24759 O1   99   DMPC H9R  HAL2   0.090000        1.0079           0
   24760 O1   99   DMPC H9S  HAL2   0.090000        1.0079           0
   24761 O1   99   DMPC C210 CTL2  -0.180000       12.0107           0
   24762 O1   99   DMPC H10R HAL2   0.090000        1.0079           0
   24763 O1   99   DMPC H10S HAL2   0.090000        1.0079           0
   24764 O1   99   DMPC C211 CTL2  -0.180000       12.0107           0
   24765 O1   99   DMPC H11R HAL2   0.090000        1.0079           0
   24766 O1   99   DMPC H11S HAL2   0.090000        1.0079           0
   24767 O1   99   DMPC C212 CTL2  -0.180000       12.0107           0
   24768 O1   99   DMPC H12R HAL2   0.090000        1.0079           0
   24769 O1   99   DMPC H12S HAL2   0.090000        1.0079           0
   24770 O1   99   DMPC C213 CTL2  -0.180000       12.0107           0
   24771 O1   99   DMPC H13R HAL2   0.090000        1.0079           0
   24772 O1   99   DMPC H13S HAL2   0.090000        1.0079           0
   24773 O1   99   DMPC C214 CTL3  -0.270000       12.0107           0
   24774 O1   99   DMPC H14R HAL3   0.090000        1.0079           0
   24775 O1   99   DMPC H14S HAL3   0.090000        1.0079           0
   24776 O1   99   DMPC H14T HAL3   0.090000        1.0079           0
   24777 O1   99   DMPC C33  CTL2  -0.180000       12.0107           0
   24778 O1   99   DMPC H3X  HAL2   0.090000        1.0079           0
   24779 O1   99   DMPC H3Y  HAL2   0.090000        1.0079           0
   24780 O1   99   DMPC C34  CTL2  -0.180000       12.0107           0
   24781 O1   99   DMPC H4X  HAL2   0.090000        1.0079           0
   24782 O1   99   DMPC H4Y  HAL2   0.090000        1.0079           0
   24783 O1   99   DMPC C35  CTL2  -0.180000       12.0107           0
   24784 O1   99   DMPC H5X  HAL2   0.090000        1.0079           0
   24785 O1   99   DMPC H5Y  HAL2   0.090000        1.0079           0
   24786 O1   99   DMPC C36  CTL2  -0.180000       12.0107           0
   24787 O1   99   DMPC H6X  HAL2   0.090000        1.0079           0
   24788 O1   99   DMPC H6Y  HAL2   0.090000        1.0079           0
   24789 O1   99   DMPC C37  CTL2  -0.180000       12.0107           0
   24790 O1   99   DMPC H7X  HAL2   0.090000        1.0079           0
   24791 O1   99   DMPC H7Y  HAL2   0.090000        1.0079           0
   24792 O1   99   DMPC C38  CTL2  -0.180000       12.0107           0
   24793 O1   99   DMPC H8X  HAL2   0.090000        1.0079           0
   24794 O1   99   DMPC H8Y  HAL2   0.090000        1.0079           0
   24795 O1   99   DMPC C39  CTL2  -0.180000       12.0107           0
   24796 O1   99   DMPC H9X  HAL2   0.090000        1.0079           0
   24797 O1   99   DMPC H9Y  HAL2   0.090000        1.0079           0
   24798 O1   99   DMPC C310 CTL2  -0.180000       12.0107           0
   24799 O1   99   DMPC H10X HAL2   0.090000        1.0079           0
   24800 O1   99   DMPC H10Y HAL2   0.090000        1.0079           0
   24801 O1   99   DMPC C311 CTL2  -0.180000       12.0107           0
   24802 O1   99   DMPC H11X HAL2   0.090000        1.0079           0
   24803 O1   99   DMPC H11Y HAL2   0.090000        1.0079           0
   24804 O1   99   DMPC C312 CTL2  -0.180000       12.0107           0
   24805 O1   99   DMPC H12X HAL2   0.090000        1.0079           0
   24806 O1   99   DMPC H12Y HAL2   0.090000        1.0079           0
   24807 O1   99   DMPC C313 CTL2  -0.180000       12.0107           0
   24808 O1   99   DMPC H13X HAL2   0.090000        1.0079           0
   24809 O1   99   DMPC H13Y HAL2   0.090000        1.0079           0
   24810 O1   99   DMPC C314 CTL3  -0.270000       12.0107           0
   24811 O1   99   DMPC H14X HAL3   0.090000        1.0079           0
   24812 O1   99   DMPC H14Y HAL3   0.090000        1.0079           0
   24813 O1   99   DMPC H14Z HAL3   0.090000        1.0079           0
   24814 O1   100  DMPC N    NTL   -0.600000       14.0067           0
   24815 O1   100  DMPC C13  CTL5  -0.350000       12.0107           0
   24816 O1   100  DMPC H13A HL     0.250000        1.0079           0
   24817 O1   100  DMPC H13B HL     0.250000        1.0079           0
   24818 O1   100  DMPC H13C HL     0.250000        1.0079           0
   24819 O1   100  DMPC C14  CTL5  -0.350000       12.0107           0
   24820 O1   100  DMPC H14A HL     0.250000        1.0079           0
   24821 O1   100  DMPC H14B HL     0.250000        1.0079           0
   24822 O1   100  DMPC H14C HL     0.250000        1.0079           0
   24823 O1   100  DMPC C15  CTL5  -0.350000       12.0107           0
   24824 O1   100  DMPC H15A HL     0.250000        1.0079           0
   24825 O1   100  DMPC H15B HL     0.250000        1.0079           0
   24826 O1   100  DMPC H15C HL     0.250000        1.0079           0
   24827 O1   100  DMPC C12  CTL2  -0.100000       12.0107           0
   24828 O1   100  DMPC H12A HL     0.250000        1.0079           0
   24829 O1   100  DMPC H12B HL     0.250000        1.0079           0
   24830 O1   100  DMPC C11  CTL2  -0.080000       12.0107           0
   24831 O1   100  DMPC H11A HAL2   0.090000        1.0079           0
   24832 O1   100  DMPC H11B HAL2   0.090000        1.0079           0
   24833 O1   100  DMPC P    PL     1.500000       30.9738           0
   24834 O1   100  DMPC O13  O2L   -0.780000       15.9994           0
   24835 O1   100  DMPC O14  O2L   -0.780000       15.9994           0
   24836 O1   100  DMPC O11  OSLP  -0.570000       15.9994           0
   24837 O1   100  DMPC O12  OSLP  -0.570000       15.9994           0
   24838 O1   100  DMPC C1   CTL2  -0.080000       12.0107           0
   24839 O1   100  DMPC HA   HAL2   0.090000        1.0079           0
   24840 O1   100  DMPC HB   HAL2   0.090000        1.0079           0
   24841 O1   100  DMPC C2   CTL1   0.170000       12.0107           0
   24842 O1   100  DMPC HS   HAL1   0.090000        1.0079           0
   24843 O1   100  DMPC O21  OSL   -0.490000       15.9994           0
   24844 O1   100  DMPC C21  CL     0.900000       12.0107           0
   24845 O1   100  DMPC O22  OBL   -0.630000       15.9994           0
   24846 O1   100  DMPC C22  CTL2  -0.220000       12.0107           0
   24847 O1   100  DMPC H2R  HAL2   0.090000        1.0079           0
   24848 O1   100  DMPC H2S  HAL2   0.090000        1.0079           0
   24849 O1   100  DMPC C3   CTL2   0.080000       12.0107           0
   24850 O1   100  DMPC HX   HAL2   0.090000        1.0079           0
   24851 O1   100  DMPC HY   HAL2   0.090000        1.0079           0
   24852 O1   100  DMPC O31  OSL   -0.490000       15.9994           0
   24853 O1   100  DMPC C31  CL     0.900000       12.0107           0
   24854 O1   100  DMPC O32  OBL   -0.630000       15.9994           0
   24855 O1   100  DMPC C32  CTL2  -0.220000       12.0107           0
   24856 O1   100  DMPC H2X  HAL2   0.090000        1.0079           0
   24857 O1   100  DMPC H2Y  HAL2   0.090000        1.0079           0
   24858 O1   100  DMPC C23  CTL2  -0.180000       12.0107           0
   24859 O1   100  DMPC H3R  HAL2   0.090000        1.0079           0
   24860 O1   100  DMPC H3S  HAL2   0.090000        1.0079           0
   24861 O1   100  DMPC C24  CTL2  -0.180000       12.0107           0
   24862 O1   100  DMPC H4R  HAL2   0.090000        1.0079           0
   24863 O1   100  DMPC H4S  HAL2   0.090000        1.0079           0
   24864 O1   100  DMPC C25  CTL2  -0.180000       12.0107           0
   24865 O1   100  DMPC H5R  HAL2   0.090000        1.0079           0
   24866 O1   100  DMPC H5S  HAL2   0.090000        1.0079           0
   24867 O1   100  DMPC C26  CTL2  -0.180000       12.0107           0
   24868 O1   100  DMPC H6R  HAL2   0.090000        1.0079           0
   24869 O1   100  DMPC H6S  HAL2   0.090000        1.0079           0
   24870 O1   100  DMPC C27  CTL2  -0.180000       12.0107           0
   24871 O1   100  DMPC H7R  HAL2   0.090000        1.0079           0
   24872 O1   100  DMPC H7S  HAL2   0.090000        1.0079           0
   24873 O1   100  DMPC C28  CTL2  -0.180000       12.0107           0
   24874 O1   100  DMPC H8R  HAL2   0.090000        1.0079           0
   24875 O1   100  DMPC H8S  HAL2   0.090000        1.0079           0
   24876 O1   100  DMPC C29  CTL2  -0.180000       12.0107           0
   24877 O1   100  DMPC H9R  HAL2   0.090000        1.0079           0
   24878 O1   100  DMPC H9S  HAL2   0.090000        1.0079           0
   24879 O1   100  DMPC C210 CTL2  -0.180000       12.0107           0
   24880 O1   100  DMPC H10R HAL2   0.090000        1.0079           0
   24881 O1   100  DMPC H10S HAL2   0.090000        1.0079           0
   24882 O1   100  DMPC C211 CTL2  -0.180000       12.0107           0
   24883 O1   100  DMPC H11R HAL2   0.090000        1.0079           0
   24884 O1   100  DMPC H11S HAL2   0.090000        1.0079           0
   24885 O1   100  DMPC C212 CTL2  -0.180000       12.0107           0
   24886 O1   100  DMPC H12R HAL2   0.090000        1.0079           0
   24887 O1   100  DMPC H12S HAL2   0.090000        1.0079           0
   24888 O1   100  DMPC C213 CTL2  -0.180000       12.0107           0
   24889 O1   100  DMPC H13R HAL2   0.090000        1.0079           0
   24890 O1   100  DMPC H13S HAL2   0.090000        1.0079           0
   24891 O1   100  DMPC C214 CTL3  -0.270000       12.0107           0
   24892 O1   100  DMPC H14R HAL3   0.090000        1.0079           0
   24893 O1   100  DMPC H14S HAL3   0.090000        1.0079           0
   24894 O1   100  DMPC H14T HAL3   0.090000        1.0079           0
   24895 O1   100  DMPC C33  CTL2  -0.180000       12.0107           0
   24896 O1   100  DMPC H3X  HAL2   0.090000        1.0079           0
   24897 O1   100  DMPC H3Y  HAL2   0.090000        1.0079           0
   24898 O1   100  DMPC C34  CTL2  -0.180000       12.0107           0
   24899 O1   100  DMPC H4X  HAL2   0.090000        1.0079           0
   24900 O1   100  DMPC H4Y  HAL2   0.090000        1.0079           0
   24901 O1   100  DMPC C35  CTL2  -0.180000       12.0107           0
   24902 O1   100  DMPC H5X  HAL2   0.090000        1.0079           0
   24903 O1   100  DMPC H5Y  HAL2   0.090000        1.0079           0
   24904 O1   100  DMPC C36  CTL2  -0.180000       12.0107           0
   24905 O1   100  DMPC H6X  HAL2   0.090000        1.0079           0
   24906 O1   100  DMPC H6Y  HAL2   0.090000        1.0079           0
   24907 O1   100  DMPC C37  CTL2  -0.180000       12.0107           0
   24908 O1   100  DMPC H7X  HAL2   0.090000        1.0079           0
   24909 O1   100  DMPC H7Y  HAL2   0.090000        1.0079           0
   24910 O1   100  DMPC C38  CTL2  -0.180000       12.0107           0
   24911 O1   100  DMPC H8X  HAL2   0.090000        1.0079           0
   24912 O1   100  DMPC H8Y  HAL2   0.090000        1.0079           0
   24913 O1   100  DMPC C39  CTL2  -0.180000       12.0107           0
   24914 O1   100  DMPC H9X  HAL2   0.090000        1.0079           0
   24915 O1   100  DMPC H9Y  HAL2   0.090000        1.0079           0
   24916 O1   100  DMPC C310 CTL2  -0.180000       12.0107           0
   24917 O1   100  DMPC H10X HAL2   0.090000        1.0079           0
   24918 O1   100  DMPC H10Y HAL2   0.090000        1.0079           0
   24919 O1   100  DMPC C311 CTL2  -0.180000       12.0107           0
   24920 O1   100  DMPC H11X HAL2   0.090000        1.0079           0
   24921 O1   100  DMPC H11Y HAL2   0.090000        1.0079           0
   24922 O1   100  DMPC C312 CTL2  -0.180000       12.0107           0
   24923 O1   100  DMPC H12X HAL2   0.090000        1.0079           0
   24924 O1   100  DMPC H12Y HAL2   0.090000        1.0079           0
   24925 O1   100  DMPC C313 CTL2  -0.180000       12.0107           0
   24926 O1   100  DMPC H13X HAL2   0.090000        1.0079           0
   24927 O1   100  DMPC H13Y HAL2   0.090000        1.0079           0
   24928 O1   100  DMPC C314 CTL3  -0.270000       12.0107           0
   24929 O1   100  DMPC H14X HAL3   0.090000        1.0079           0
   24930 O1   100  DMPC H14Y HAL3   0.090000        1.0079           0
   24931 O1   100  DMPC H14Z HAL3   0.090000        1.0079           0
   24932 O1   101  DMPC N    NTL   -0.600000       14.0067           0
   24933 O1   101  DMPC C13  CTL5  -0.350000       12.0107           0
   24934 O1   101  DMPC H13A HL     0.250000        1.0079           0
   24935 O1   101  DMPC H13B HL     0.250000        1.0079           0
   24936 O1   101  DMPC H13C HL     0.250000        1.0079           0
   24937 O1   101  DMPC C14  CTL5  -0.350000       12.0107           0
   24938 O1   101  DMPC H14A HL     0.250000        1.0079           0
   24939 O1   101  DMPC H14B HL     0.250000        1.0079           0
   24940 O1   101  DMPC H14C HL     0.250000        1.0079           0
   24941 O1   101  DMPC C15  CTL5  -0.350000       12.0107           0
   24942 O1   101  DMPC H15A HL     0.250000        1.0079           0
   24943 O1   101  DMPC H15B HL     0.250000        1.0079           0
   24944 O1   101  DMPC H15C HL     0.250000        1.0079           0
   24945 O1   101  DMPC C12  CTL2  -0.100000       12.0107           0
   24946 O1   101  DMPC H12A HL     0.250000        1.0079           0
   24947 O1   101  DMPC H12B HL     0.250000        1.0079           0
   24948 O1   101  DMPC C11  CTL2  -0.080000       12.0107           0
   24949 O1   101  DMPC H11A HAL2   0.090000        1.0079           0
   24950 O1   101  DMPC H11B HAL2   0.090000        1.0079           0
   24951 O1   101  DMPC P    PL     1.500000       30.9738           0
   24952 O1   101  DMPC O13  O2L   -0.780000       15.9994           0
   24953 O1   101  DMPC O14  O2L   -0.780000       15.9994           0
   24954 O1   101  DMPC O11  OSLP  -0.570000       15.9994           0
   24955 O1   101  DMPC O12  OSLP  -0.570000       15.9994           0
   24956 O1   101  DMPC C1   CTL2  -0.080000       12.0107           0
   24957 O1   101  DMPC HA   HAL2   0.090000        1.0079           0
   24958 O1   101  DMPC HB   HAL2   0.090000        1.0079           0
   24959 O1   101  DMPC C2   CTL1   0.170000       12.0107           0
   24960 O1   101  DMPC HS   HAL1   0.090000        1.0079           0
   24961 O1   101  DMPC O21  OSL   -0.490000       15.9994           0
   24962 O1   101  DMPC C21  CL     0.900000       12.0107           0
   24963 O1   101  DMPC O22  OBL   -0.630000       15.9994           0
   24964 O1   101  DMPC C22  CTL2  -0.220000       12.0107           0
   24965 O1   101  DMPC H2R  HAL2   0.090000        1.0079           0
   24966 O1   101  DMPC H2S  HAL2   0.090000        1.0079           0
   24967 O1   101  DMPC C3   CTL2   0.080000       12.0107           0
   24968 O1   101  DMPC HX   HAL2   0.090000        1.0079           0
   24969 O1   101  DMPC HY   HAL2   0.090000        1.0079           0
   24970 O1   101  DMPC O31  OSL   -0.490000       15.9994           0
   24971 O1   101  DMPC C31  CL     0.900000       12.0107           0
   24972 O1   101  DMPC O32  OBL   -0.630000       15.9994           0
   24973 O1   101  DMPC C32  CTL2  -0.220000       12.0107           0
   24974 O1   101  DMPC H2X  HAL2   0.090000        1.0079           0
   24975 O1   101  DMPC H2Y  HAL2   0.090000        1.0079           0
   24976 O1   101  DMPC C23  CTL2  -0.180000       12.0107           0
   24977 O1   101  DMPC H3R  HAL2   0.090000        1.0079           0
   24978 O1   101  DMPC H3S  HAL2   0.090000        1.0079           0
   24979 O1   101  DMPC C24  CTL2  -0.180000       12.0107           0
   24980 O1   101  DMPC H4R  HAL2   0.090000        1.0079           0
   24981 O1   101  DMPC H4S  HAL2   0.090000        1.0079           0
   24982 O1   101  DMPC C25  CTL2  -0.180000       12.0107           0
   24983 O1   101  DMPC H5R  HAL2   0.090000        1.0079           0
   24984 O1   101  DMPC H5S  HAL2   0.090000        1.0079           0
   24985 O1   101  DMPC C26  CTL2  -0.180000       12.0107           0
   24986 O1   101  DMPC H6R  HAL2   0.090000        1.0079           0
   24987 O1   101  DMPC H6S  HAL2   0.090000        1.0079           0
   24988 O1   101  DMPC C27  CTL2  -0.180000       12.0107           0
   24989 O1   101  DMPC H7R  HAL2   0.090000        1.0079           0
   24990 O1   101  DMPC H7S  HAL2   0.090000        1.0079           0
   24991 O1   101  DMPC C28  CTL2  -0.180000       12.0107           0
   24992 O1   101  DMPC H8R  HAL2   0.090000        1.0079           0
   24993 O1   101  DMPC H8S  HAL2   0.090000        1.0079           0
   24994 O1   101  DMPC C29  CTL2  -0.180000       12.0107           0
   24995 O1   101  DMPC H9R  HAL2   0.090000        1.0079           0
   24996 O1   101  DMPC H9S  HAL2   0.090000        1.0079           0
   24997 O1   101  DMPC C210 CTL2  -0.180000       12.0107           0
   24998 O1   101  DMPC H10R HAL2   0.090000        1.0079           0
   24999 O1   101  DMPC H10S HAL2   0.090000        1.0079           0
   25000 O1   101  DMPC C211 CTL2  -0.180000       12.0107           0
   25001 O1   101  DMPC H11R HAL2   0.090000        1.0079           0
   25002 O1   101  DMPC H11S HAL2   0.090000        1.0079           0
   25003 O1   101  DMPC C212 CTL2  -0.180000       12.0107           0
   25004 O1   101  DMPC H12R HAL2   0.090000        1.0079           0
   25005 O1   101  DMPC H12S HAL2   0.090000        1.0079           0
   25006 O1   101  DMPC C213 CTL2  -0.180000       12.0107           0
   25007 O1   101  DMPC H13R HAL2   0.090000        1.0079           0
   25008 O1   101  DMPC H13S HAL2   0.090000        1.0079           0
   25009 O1   101  DMPC C214 CTL3  -0.270000       12.0107           0
   25010 O1   101  DMPC H14R HAL3   0.090000        1.0079           0
   25011 O1   101  DMPC H14S HAL3   0.090000        1.0079           0
   25012 O1   101  DMPC H14T HAL3   0.090000        1.0079           0
   25013 O1   101  DMPC C33  CTL2  -0.180000       12.0107           0
   25014 O1   101  DMPC H3X  HAL2   0.090000        1.0079           0
   25015 O1   101  DMPC H3Y  HAL2   0.090000        1.0079           0
   25016 O1   101  DMPC C34  CTL2  -0.180000       12.0107           0
   25017 O1   101  DMPC H4X  HAL2   0.090000        1.0079           0
   25018 O1   101  DMPC H4Y  HAL2   0.090000        1.0079           0
   25019 O1   101  DMPC C35  CTL2  -0.180000       12.0107           0
   25020 O1   101  DMPC H5X  HAL2   0.090000        1.0079           0
   25021 O1   101  DMPC H5Y  HAL2   0.090000        1.0079           0
   25022 O1   101  DMPC C36  CTL2  -0.180000       12.0107           0
   25023 O1   101  DMPC H6X  HAL2   0.090000        1.0079           0
   25024 O1   101  DMPC H6Y  HAL2   0.090000        1.0079           0
   25025 O1   101  DMPC C37  CTL2  -0.180000       12.0107           0
   25026 O1   101  DMPC H7X  HAL2   0.090000        1.0079           0
   25027 O1   101  DMPC H7Y  HAL2   0.090000        1.0079           0
   25028 O1   101  DMPC C38  CTL2  -0.180000       12.0107           0
   25029 O1   101  DMPC H8X  HAL2   0.090000        1.0079           0
   25030 O1   101  DMPC H8Y  HAL2   0.090000        1.0079           0
   25031 O1   101  DMPC C39  CTL2  -0.180000       12.0107           0
   25032 O1   101  DMPC H9X  HAL2   0.090000        1.0079           0
   25033 O1   101  DMPC H9Y  HAL2   0.090000        1.0079           0
   25034 O1   101  DMPC C310 CTL2  -0.180000       12.0107           0
   25035 O1   101  DMPC H10X HAL2   0.090000        1.0079           0
   25036 O1   101  DMPC H10Y HAL2   0.090000        1.0079           0
   25037 O1   101  DMPC C311 CTL2  -0.180000       12.0107           0
   25038 O1   101  DMPC H11X HAL2   0.090000        1.0079           0
   25039 O1   101  DMPC H11Y HAL2   0.090000        1.0079           0
   25040 O1   101  DMPC C312 CTL2  -0.180000       12.0107           0
   25041 O1   101  DMPC H12X HAL2   0.090000        1.0079           0
   25042 O1   101  DMPC H12Y HAL2   0.090000        1.0079           0
   25043 O1   101  DMPC C313 CTL2  -0.180000       12.0107           0
   25044 O1   101  DMPC H13X HAL2   0.090000        1.0079           0
   25045 O1   101  DMPC H13Y HAL2   0.090000        1.0079           0
   25046 O1   101  DMPC C314 CTL3  -0.270000       12.0107           0
   25047 O1   101  DMPC H14X HAL3   0.090000        1.0079           0
   25048 O1   101  DMPC H14Y HAL3   0.090000        1.0079           0
   25049 O1   101  DMPC H14Z HAL3   0.090000        1.0079           0
   25050 O1   102  DMPC N    NTL   -0.600000       14.0067           0
   25051 O1   102  DMPC C13  CTL5  -0.350000       12.0107           0
   25052 O1   102  DMPC H13A HL     0.250000        1.0079           0
   25053 O1   102  DMPC H13B HL     0.250000        1.0079           0
   25054 O1   102  DMPC H13C HL     0.250000        1.0079           0
   25055 O1   102  DMPC C14  CTL5  -0.350000       12.0107           0
   25056 O1   102  DMPC H14A HL     0.250000        1.0079           0
   25057 O1   102  DMPC H14B HL     0.250000        1.0079           0
   25058 O1   102  DMPC H14C HL     0.250000        1.0079           0
   25059 O1   102  DMPC C15  CTL5  -0.350000       12.0107           0
   25060 O1   102  DMPC H15A HL     0.250000        1.0079           0
   25061 O1   102  DMPC H15B HL     0.250000        1.0079           0
   25062 O1   102  DMPC H15C HL     0.250000        1.0079           0
   25063 O1   102  DMPC C12  CTL2  -0.100000       12.0107           0
   25064 O1   102  DMPC H12A HL     0.250000        1.0079           0
   25065 O1   102  DMPC H12B HL     0.250000        1.0079           0
   25066 O1   102  DMPC C11  CTL2  -0.080000       12.0107           0
   25067 O1   102  DMPC H11A HAL2   0.090000        1.0079           0
   25068 O1   102  DMPC H11B HAL2   0.090000        1.0079           0
   25069 O1   102  DMPC P    PL     1.500000       30.9738           0
   25070 O1   102  DMPC O13  O2L   -0.780000       15.9994           0
   25071 O1   102  DMPC O14  O2L   -0.780000       15.9994           0
   25072 O1   102  DMPC O11  OSLP  -0.570000       15.9994           0
   25073 O1   102  DMPC O12  OSLP  -0.570000       15.9994           0
   25074 O1   102  DMPC C1   CTL2  -0.080000       12.0107           0
   25075 O1   102  DMPC HA   HAL2   0.090000        1.0079           0
   25076 O1   102  DMPC HB   HAL2   0.090000        1.0079           0
   25077 O1   102  DMPC C2   CTL1   0.170000       12.0107           0
   25078 O1   102  DMPC HS   HAL1   0.090000        1.0079           0
   25079 O1   102  DMPC O21  OSL   -0.490000       15.9994           0
   25080 O1   102  DMPC C21  CL     0.900000       12.0107           0
   25081 O1   102  DMPC O22  OBL   -0.630000       15.9994           0
   25082 O1   102  DMPC C22  CTL2  -0.220000       12.0107           0
   25083 O1   102  DMPC H2R  HAL2   0.090000        1.0079           0
   25084 O1   102  DMPC H2S  HAL2   0.090000        1.0079           0
   25085 O1   102  DMPC C3   CTL2   0.080000       12.0107           0
   25086 O1   102  DMPC HX   HAL2   0.090000        1.0079           0
   25087 O1   102  DMPC HY   HAL2   0.090000        1.0079           0
   25088 O1   102  DMPC O31  OSL   -0.490000       15.9994           0
   25089 O1   102  DMPC C31  CL     0.900000       12.0107           0
   25090 O1   102  DMPC O32  OBL   -0.630000       15.9994           0
   25091 O1   102  DMPC C32  CTL2  -0.220000       12.0107           0
   25092 O1   102  DMPC H2X  HAL2   0.090000        1.0079           0
   25093 O1   102  DMPC H2Y  HAL2   0.090000        1.0079           0
   25094 O1   102  DMPC C23  CTL2  -0.180000       12.0107           0
   25095 O1   102  DMPC H3R  HAL2   0.090000        1.0079           0
   25096 O1   102  DMPC H3S  HAL2   0.090000        1.0079           0
   25097 O1   102  DMPC C24  CTL2  -0.180000       12.0107           0
   25098 O1   102  DMPC H4R  HAL2   0.090000        1.0079           0
   25099 O1   102  DMPC H4S  HAL2   0.090000        1.0079           0
   25100 O1   102  DMPC C25  CTL2  -0.180000       12.0107           0
   25101 O1   102  DMPC H5R  HAL2   0.090000        1.0079           0
   25102 O1   102  DMPC H5S  HAL2   0.090000        1.0079           0
   25103 O1   102  DMPC C26  CTL2  -0.180000       12.0107           0
   25104 O1   102  DMPC H6R  HAL2   0.090000        1.0079           0
   25105 O1   102  DMPC H6S  HAL2   0.090000        1.0079           0
   25106 O1   102  DMPC C27  CTL2  -0.180000       12.0107           0
   25107 O1   102  DMPC H7R  HAL2   0.090000        1.0079           0
   25108 O1   102  DMPC H7S  HAL2   0.090000        1.0079           0
   25109 O1   102  DMPC C28  CTL2  -0.180000       12.0107           0
   25110 O1   102  DMPC H8R  HAL2   0.090000        1.0079           0
   25111 O1   102  DMPC H8S  HAL2   0.090000        1.0079           0
   25112 O1   102  DMPC C29  CTL2  -0.180000       12.0107           0
   25113 O1   102  DMPC H9R  HAL2   0.090000        1.0079           0
   25114 O1   102  DMPC H9S  HAL2   0.090000        1.0079           0
   25115 O1   102  DMPC C210 CTL2  -0.180000       12.0107           0
   25116 O1   102  DMPC H10R HAL2   0.090000        1.0079           0
   25117 O1   102  DMPC H10S HAL2   0.090000        1.0079           0
   25118 O1   102  DMPC C211 CTL2  -0.180000       12.0107           0
   25119 O1   102  DMPC H11R HAL2   0.090000        1.0079           0
   25120 O1   102  DMPC H11S HAL2   0.090000        1.0079           0
   25121 O1   102  DMPC C212 CTL2  -0.180000       12.0107           0
   25122 O1   102  DMPC H12R HAL2   0.090000        1.0079           0
   25123 O1   102  DMPC H12S HAL2   0.090000        1.0079           0
   25124 O1   102  DMPC C213 CTL2  -0.180000       12.0107           0
   25125 O1   102  DMPC H13R HAL2   0.090000        1.0079           0
   25126 O1   102  DMPC H13S HAL2   0.090000        1.0079           0
   25127 O1   102  DMPC C214 CTL3  -0.270000       12.0107           0
   25128 O1   102  DMPC H14R HAL3   0.090000        1.0079           0
   25129 O1   102  DMPC H14S HAL3   0.090000        1.0079           0
   25130 O1   102  DMPC H14T HAL3   0.090000        1.0079           0
   25131 O1   102  DMPC C33  CTL2  -0.180000       12.0107           0
   25132 O1   102  DMPC H3X  HAL2   0.090000        1.0079           0
   25133 O1   102  DMPC H3Y  HAL2   0.090000        1.0079           0
   25134 O1   102  DMPC C34  CTL2  -0.180000       12.0107           0
   25135 O1   102  DMPC H4X  HAL2   0.090000        1.0079           0
   25136 O1   102  DMPC H4Y  HAL2   0.090000        1.0079           0
   25137 O1   102  DMPC C35  CTL2  -0.180000       12.0107           0
   25138 O1   102  DMPC H5X  HAL2   0.090000        1.0079           0
   25139 O1   102  DMPC H5Y  HAL2   0.090000        1.0079           0
   25140 O1   102  DMPC C36  CTL2  -0.180000       12.0107           0
   25141 O1   102  DMPC H6X  HAL2   0.090000        1.0079           0
   25142 O1   102  DMPC H6Y  HAL2   0.090000        1.0079           0
   25143 O1   102  DMPC C37  CTL2  -0.180000       12.0107           0
   25144 O1   102  DMPC H7X  HAL2   0.090000        1.0079           0
   25145 O1   102  DMPC H7Y  HAL2   0.090000        1.0079           0
   25146 O1   102  DMPC C38  CTL2  -0.180000       12.0107           0
   25147 O1   102  DMPC H8X  HAL2   0.090000        1.0079           0
   25148 O1   102  DMPC H8Y  HAL2   0.090000        1.0079           0
   25149 O1   102  DMPC C39  CTL2  -0.180000       12.0107           0
   25150 O1   102  DMPC H9X  HAL2   0.090000        1.0079           0
   25151 O1   102  DMPC H9Y  HAL2   0.090000        1.0079           0
   25152 O1   102  DMPC C310 CTL2  -0.180000       12.0107           0
   25153 O1   102  DMPC H10X HAL2   0.090000        1.0079           0
   25154 O1   102  DMPC H10Y HAL2   0.090000        1.0079           0
   25155 O1   102  DMPC C311 CTL2  -0.180000       12.0107           0
   25156 O1   102  DMPC H11X HAL2   0.090000        1.0079           0
   25157 O1   102  DMPC H11Y HAL2   0.090000        1.0079           0
   25158 O1   102  DMPC C312 CTL2  -0.180000       12.0107           0
   25159 O1   102  DMPC H12X HAL2   0.090000        1.0079           0
   25160 O1   102  DMPC H12Y HAL2   0.090000        1.0079           0
   25161 O1   102  DMPC C313 CTL2  -0.180000       12.0107           0
   25162 O1   102  DMPC H13X HAL2   0.090000        1.0079           0
   25163 O1   102  DMPC H13Y HAL2   0.090000        1.0079           0
   25164 O1   102  DMPC C314 CTL3  -0.270000       12.0107           0
   25165 O1   102  DMPC H14X HAL3   0.090000        1.0079           0
   25166 O1   102  DMPC H14Y HAL3   0.090000        1.0079           0
   25167 O1   102  DMPC H14Z HAL3   0.090000        1.0079           0
   25168 O1   103  DMPC N    NTL   -0.600000       14.0067           0
   25169 O1   103  DMPC C13  CTL5  -0.350000       12.0107           0
   25170 O1   103  DMPC H13A HL     0.250000        1.0079           0
   25171 O1   103  DMPC H13B HL     0.250000        1.0079           0
   25172 O1   103  DMPC H13C HL     0.250000        1.0079           0
   25173 O1   103  DMPC C14  CTL5  -0.350000       12.0107           0
   25174 O1   103  DMPC H14A HL     0.250000        1.0079           0
   25175 O1   103  DMPC H14B HL     0.250000        1.0079           0
   25176 O1   103  DMPC H14C HL     0.250000        1.0079           0
   25177 O1   103  DMPC C15  CTL5  -0.350000       12.0107           0
   25178 O1   103  DMPC H15A HL     0.250000        1.0079           0
   25179 O1   103  DMPC H15B HL     0.250000        1.0079           0
   25180 O1   103  DMPC H15C HL     0.250000        1.0079           0
   25181 O1   103  DMPC C12  CTL2  -0.100000       12.0107           0
   25182 O1   103  DMPC H12A HL     0.250000        1.0079           0
   25183 O1   103  DMPC H12B HL     0.250000        1.0079           0
   25184 O1   103  DMPC C11  CTL2  -0.080000       12.0107           0
   25185 O1   103  DMPC H11A HAL2   0.090000        1.0079           0
   25186 O1   103  DMPC H11B HAL2   0.090000        1.0079           0
   25187 O1   103  DMPC P    PL     1.500000       30.9738           0
   25188 O1   103  DMPC O13  O2L   -0.780000       15.9994           0
   25189 O1   103  DMPC O14  O2L   -0.780000       15.9994           0
   25190 O1   103  DMPC O11  OSLP  -0.570000       15.9994           0
   25191 O1   103  DMPC O12  OSLP  -0.570000       15.9994           0
   25192 O1   103  DMPC C1   CTL2  -0.080000       12.0107           0
   25193 O1   103  DMPC HA   HAL2   0.090000        1.0079           0
   25194 O1   103  DMPC HB   HAL2   0.090000        1.0079           0
   25195 O1   103  DMPC C2   CTL1   0.170000       12.0107           0
   25196 O1   103  DMPC HS   HAL1   0.090000        1.0079           0
   25197 O1   103  DMPC O21  OSL   -0.490000       15.9994           0
   25198 O1   103  DMPC C21  CL     0.900000       12.0107           0
   25199 O1   103  DMPC O22  OBL   -0.630000       15.9994           0
   25200 O1   103  DMPC C22  CTL2  -0.220000       12.0107           0
   25201 O1   103  DMPC H2R  HAL2   0.090000        1.0079           0
   25202 O1   103  DMPC H2S  HAL2   0.090000        1.0079           0
   25203 O1   103  DMPC C3   CTL2   0.080000       12.0107           0
   25204 O1   103  DMPC HX   HAL2   0.090000        1.0079           0
   25205 O1   103  DMPC HY   HAL2   0.090000        1.0079           0
   25206 O1   103  DMPC O31  OSL   -0.490000       15.9994           0
   25207 O1   103  DMPC C31  CL     0.900000       12.0107           0
   25208 O1   103  DMPC O32  OBL   -0.630000       15.9994           0
   25209 O1   103  DMPC C32  CTL2  -0.220000       12.0107           0
   25210 O1   103  DMPC H2X  HAL2   0.090000        1.0079           0
   25211 O1   103  DMPC H2Y  HAL2   0.090000        1.0079           0
   25212 O1   103  DMPC C23  CTL2  -0.180000       12.0107           0
   25213 O1   103  DMPC H3R  HAL2   0.090000        1.0079           0
   25214 O1   103  DMPC H3S  HAL2   0.090000        1.0079           0
   25215 O1   103  DMPC C24  CTL2  -0.180000       12.0107           0
   25216 O1   103  DMPC H4R  HAL2   0.090000        1.0079           0
   25217 O1   103  DMPC H4S  HAL2   0.090000        1.0079           0
   25218 O1   103  DMPC C25  CTL2  -0.180000       12.0107           0
   25219 O1   103  DMPC H5R  HAL2   0.090000        1.0079           0
   25220 O1   103  DMPC H5S  HAL2   0.090000        1.0079           0
   25221 O1   103  DMPC C26  CTL2  -0.180000       12.0107           0
   25222 O1   103  DMPC H6R  HAL2   0.090000        1.0079           0
   25223 O1   103  DMPC H6S  HAL2   0.090000        1.0079           0
   25224 O1   103  DMPC C27  CTL2  -0.180000       12.0107           0
   25225 O1   103  DMPC H7R  HAL2   0.090000        1.0079           0
   25226 O1   103  DMPC H7S  HAL2   0.090000        1.0079           0
   25227 O1   103  DMPC C28  CTL2  -0.180000       12.0107           0
   25228 O1   103  DMPC H8R  HAL2   0.090000        1.0079           0
   25229 O1   103  DMPC H8S  HAL2   0.090000        1.0079           0
   25230 O1   103  DMPC C29  CTL2  -0.180000       12.0107           0
   25231 O1   103  DMPC H9R  HAL2   0.090000        1.0079           0
   25232 O1   103  DMPC H9S  HAL2   0.090000        1.0079           0
   25233 O1   103  DMPC C210 CTL2  -0.180000       12.0107           0
   25234 O1   103  DMPC H10R HAL2   0.090000        1.0079           0
   25235 O1   103  DMPC H10S HAL2   0.090000        1.0079           0
   25236 O1   103  DMPC C211 CTL2  -0.180000       12.0107           0
   25237 O1   103  DMPC H11R HAL2   0.090000        1.0079           0
   25238 O1   103  DMPC H11S HAL2   0.090000        1.0079           0
   25239 O1   103  DMPC C212 CTL2  -0.180000       12.0107           0
   25240 O1   103  DMPC H12R HAL2   0.090000        1.0079           0
   25241 O1   103  DMPC H12S HAL2   0.090000        1.0079           0
   25242 O1   103  DMPC C213 CTL2  -0.180000       12.0107           0
   25243 O1   103  DMPC H13R HAL2   0.090000        1.0079           0
   25244 O1   103  DMPC H13S HAL2   0.090000        1.0079           0
   25245 O1   103  DMPC C214 CTL3  -0.270000       12.0107           0
   25246 O1   103  DMPC H14R HAL3   0.090000        1.0079           0
   25247 O1   103  DMPC H14S HAL3   0.090000        1.0079           0
   25248 O1   103  DMPC H14T HAL3   0.090000        1.0079           0
   25249 O1   103  DMPC C33  CTL2  -0.180000       12.0107           0
   25250 O1   103  DMPC H3X  HAL2   0.090000        1.0079           0
   25251 O1   103  DMPC H3Y  HAL2   0.090000        1.0079           0
   25252 O1   103  DMPC C34  CTL2  -0.180000       12.0107           0
   25253 O1   103  DMPC H4X  HAL2   0.090000        1.0079           0
   25254 O1   103  DMPC H4Y  HAL2   0.090000        1.0079           0
   25255 O1   103  DMPC C35  CTL2  -0.180000       12.0107           0
   25256 O1   103  DMPC H5X  HAL2   0.090000        1.0079           0
   25257 O1   103  DMPC H5Y  HAL2   0.090000        1.0079           0
   25258 O1   103  DMPC C36  CTL2  -0.180000       12.0107           0
   25259 O1   103  DMPC H6X  HAL2   0.090000        1.0079           0
   25260 O1   103  DMPC H6Y  HAL2   0.090000        1.0079           0
   25261 O1   103  DMPC C37  CTL2  -0.180000       12.0107           0
   25262 O1   103  DMPC H7X  HAL2   0.090000        1.0079           0
   25263 O1   103  DMPC H7Y  HAL2   0.090000        1.0079           0
   25264 O1   103  DMPC C38  CTL2  -0.180000       12.0107           0
   25265 O1   103  DMPC H8X  HAL2   0.090000        1.0079           0
   25266 O1   103  DMPC H8Y  HAL2   0.090000        1.0079           0
   25267 O1   103  DMPC C39  CTL2  -0.180000       12.0107           0
   25268 O1   103  DMPC H9X  HAL2   0.090000        1.0079           0
   25269 O1   103  DMPC H9Y  HAL2   0.090000        1.0079           0
   25270 O1   103  DMPC C310 CTL2  -0.180000       12.0107           0
   25271 O1   103  DMPC H10X HAL2   0.090000        1.0079           0
   25272 O1   103  DMPC H10Y HAL2   0.090000        1.0079           0
   25273 O1   103  DMPC C311 CTL2  -0.180000       12.0107           0
   25274 O1   103  DMPC H11X HAL2   0.090000        1.0079           0
   25275 O1   103  DMPC H11Y HAL2   0.090000        1.0079           0
   25276 O1   103  DMPC C312 CTL2  -0.180000       12.0107           0
   25277 O1   103  DMPC H12X HAL2   0.090000        1.0079           0
   25278 O1   103  DMPC H12Y HAL2   0.090000        1.0079           0
   25279 O1   103  DMPC C313 CTL2  -0.180000       12.0107           0
   25280 O1   103  DMPC H13X HAL2   0.090000        1.0079           0
   25281 O1   103  DMPC H13Y HAL2   0.090000        1.0079           0
   25282 O1   103  DMPC C314 CTL3  -0.270000       12.0107           0
   25283 O1   103  DMPC H14X HAL3   0.090000        1.0079           0
   25284 O1   103  DMPC H14Y HAL3   0.090000        1.0079           0
   25285 O1   103  DMPC H14Z HAL3   0.090000        1.0079           0
   25286 O1   104  DMPC N    NTL   -0.600000       14.0067           0
   25287 O1   104  DMPC C13  CTL5  -0.350000       12.0107           0
   25288 O1   104  DMPC H13A HL     0.250000        1.0079           0
   25289 O1   104  DMPC H13B HL     0.250000        1.0079           0
   25290 O1   104  DMPC H13C HL     0.250000        1.0079           0
   25291 O1   104  DMPC C14  CTL5  -0.350000       12.0107           0
   25292 O1   104  DMPC H14A HL     0.250000        1.0079           0
   25293 O1   104  DMPC H14B HL     0.250000        1.0079           0
   25294 O1   104  DMPC H14C HL     0.250000        1.0079           0
   25295 O1   104  DMPC C15  CTL5  -0.350000       12.0107           0
   25296 O1   104  DMPC H15A HL     0.250000        1.0079           0
   25297 O1   104  DMPC H15B HL     0.250000        1.0079           0
   25298 O1   104  DMPC H15C HL     0.250000        1.0079           0
   25299 O1   104  DMPC C12  CTL2  -0.100000       12.0107           0
   25300 O1   104  DMPC H12A HL     0.250000        1.0079           0
   25301 O1   104  DMPC H12B HL     0.250000        1.0079           0
   25302 O1   104  DMPC C11  CTL2  -0.080000       12.0107           0
   25303 O1   104  DMPC H11A HAL2   0.090000        1.0079           0
   25304 O1   104  DMPC H11B HAL2   0.090000        1.0079           0
   25305 O1   104  DMPC P    PL     1.500000       30.9738           0
   25306 O1   104  DMPC O13  O2L   -0.780000       15.9994           0
   25307 O1   104  DMPC O14  O2L   -0.780000       15.9994           0
   25308 O1   104  DMPC O11  OSLP  -0.570000       15.9994           0
   25309 O1   104  DMPC O12  OSLP  -0.570000       15.9994           0
   25310 O1   104  DMPC C1   CTL2  -0.080000       12.0107           0
   25311 O1   104  DMPC HA   HAL2   0.090000        1.0079           0
   25312 O1   104  DMPC HB   HAL2   0.090000        1.0079           0
   25313 O1   104  DMPC C2   CTL1   0.170000       12.0107           0
   25314 O1   104  DMPC HS   HAL1   0.090000        1.0079           0
   25315 O1   104  DMPC O21  OSL   -0.490000       15.9994           0
   25316 O1   104  DMPC C21  CL     0.900000       12.0107           0
   25317 O1   104  DMPC O22  OBL   -0.630000       15.9994           0
   25318 O1   104  DMPC C22  CTL2  -0.220000       12.0107           0
   25319 O1   104  DMPC H2R  HAL2   0.090000        1.0079           0
   25320 O1   104  DMPC H2S  HAL2   0.090000        1.0079           0
   25321 O1   104  DMPC C3   CTL2   0.080000       12.0107           0
   25322 O1   104  DMPC HX   HAL2   0.090000        1.0079           0
   25323 O1   104  DMPC HY   HAL2   0.090000        1.0079           0
   25324 O1   104  DMPC O31  OSL   -0.490000       15.9994           0
   25325 O1   104  DMPC C31  CL     0.900000       12.0107           0
   25326 O1   104  DMPC O32  OBL   -0.630000       15.9994           0
   25327 O1   104  DMPC C32  CTL2  -0.220000       12.0107           0
   25328 O1   104  DMPC H2X  HAL2   0.090000        1.0079           0
   25329 O1   104  DMPC H2Y  HAL2   0.090000        1.0079           0
   25330 O1   104  DMPC C23  CTL2  -0.180000       12.0107           0
   25331 O1   104  DMPC H3R  HAL2   0.090000        1.0079           0
   25332 O1   104  DMPC H3S  HAL2   0.090000        1.0079           0
   25333 O1   104  DMPC C24  CTL2  -0.180000       12.0107           0
   25334 O1   104  DMPC H4R  HAL2   0.090000        1.0079           0
   25335 O1   104  DMPC H4S  HAL2   0.090000        1.0079           0
   25336 O1   104  DMPC C25  CTL2  -0.180000       12.0107           0
   25337 O1   104  DMPC H5R  HAL2   0.090000        1.0079           0
   25338 O1   104  DMPC H5S  HAL2   0.090000        1.0079           0
   25339 O1   104  DMPC C26  CTL2  -0.180000       12.0107           0
   25340 O1   104  DMPC H6R  HAL2   0.090000        1.0079           0
   25341 O1   104  DMPC H6S  HAL2   0.090000        1.0079           0
   25342 O1   104  DMPC C27  CTL2  -0.180000       12.0107           0
   25343 O1   104  DMPC H7R  HAL2   0.090000        1.0079           0
   25344 O1   104  DMPC H7S  HAL2   0.090000        1.0079           0
   25345 O1   104  DMPC C28  CTL2  -0.180000       12.0107           0
   25346 O1   104  DMPC H8R  HAL2   0.090000        1.0079           0
   25347 O1   104  DMPC H8S  HAL2   0.090000        1.0079           0
   25348 O1   104  DMPC C29  CTL2  -0.180000       12.0107           0
   25349 O1   104  DMPC H9R  HAL2   0.090000        1.0079           0
   25350 O1   104  DMPC H9S  HAL2   0.090000        1.0079           0
   25351 O1   104  DMPC C210 CTL2  -0.180000       12.0107           0
   25352 O1   104  DMPC H10R HAL2   0.090000        1.0079           0
   25353 O1   104  DMPC H10S HAL2   0.090000        1.0079           0
   25354 O1   104  DMPC C211 CTL2  -0.180000       12.0107           0
   25355 O1   104  DMPC H11R HAL2   0.090000        1.0079           0
   25356 O1   104  DMPC H11S HAL2   0.090000        1.0079           0
   25357 O1   104  DMPC C212 CTL2  -0.180000       12.0107           0
   25358 O1   104  DMPC H12R HAL2   0.090000        1.0079           0
   25359 O1   104  DMPC H12S HAL2   0.090000        1.0079           0
   25360 O1   104  DMPC C213 CTL2  -0.180000       12.0107           0
   25361 O1   104  DMPC H13R HAL2   0.090000        1.0079           0
   25362 O1   104  DMPC H13S HAL2   0.090000        1.0079           0
   25363 O1   104  DMPC C214 CTL3  -0.270000       12.0107           0
   25364 O1   104  DMPC H14R HAL3   0.090000        1.0079           0
   25365 O1   104  DMPC H14S HAL3   0.090000        1.0079           0
   25366 O1   104  DMPC H14T HAL3   0.090000        1.0079           0
   25367 O1   104  DMPC C33  CTL2  -0.180000       12.0107           0
   25368 O1   104  DMPC H3X  HAL2   0.090000        1.0079           0
   25369 O1   104  DMPC H3Y  HAL2   0.090000        1.0079           0
   25370 O1   104  DMPC C34  CTL2  -0.180000       12.0107           0
   25371 O1   104  DMPC H4X  HAL2   0.090000        1.0079           0
   25372 O1   104  DMPC H4Y  HAL2   0.090000        1.0079           0
   25373 O1   104  DMPC C35  CTL2  -0.180000       12.0107           0
   25374 O1   104  DMPC H5X  HAL2   0.090000        1.0079           0
   25375 O1   104  DMPC H5Y  HAL2   0.090000        1.0079           0
   25376 O1   104  DMPC C36  CTL2  -0.180000       12.0107           0
   25377 O1   104  DMPC H6X  HAL2   0.090000        1.0079           0
   25378 O1   104  DMPC H6Y  HAL2   0.090000        1.0079           0
   25379 O1   104  DMPC C37  CTL2  -0.180000       12.0107           0
   25380 O1   104  DMPC H7X  HAL2   0.090000        1.0079           0
   25381 O1   104  DMPC H7Y  HAL2   0.090000        1.0079           0
   25382 O1   104  DMPC C38  CTL2  -0.180000       12.0107           0
   25383 O1   104  DMPC H8X  HAL2   0.090000        1.0079           0
   25384 O1   104  DMPC H8Y  HAL2   0.090000        1.0079           0
   25385 O1   104  DMPC C39  CTL2  -0.180000       12.0107           0
   25386 O1   104  DMPC H9X  HAL2   0.090000        1.0079           0
   25387 O1   104  DMPC H9Y  HAL2   0.090000        1.0079           0
   25388 O1   104  DMPC C310 CTL2  -0.180000       12.0107           0
   25389 O1   104  DMPC H10X HAL2   0.090000        1.0079           0
   25390 O1   104  DMPC H10Y HAL2   0.090000        1.0079           0
   25391 O1   104  DMPC C311 CTL2  -0.180000       12.0107           0
   25392 O1   104  DMPC H11X HAL2   0.090000        1.0079           0
   25393 O1   104  DMPC H11Y HAL2   0.090000        1.0079           0
   25394 O1   104  DMPC C312 CTL2  -0.180000       12.0107           0
   25395 O1   104  DMPC H12X HAL2   0.090000        1.0079           0
   25396 O1   104  DMPC H12Y HAL2   0.090000        1.0079           0
   25397 O1   104  DMPC C313 CTL2  -0.180000       12.0107           0
   25398 O1   104  DMPC H13X HAL2   0.090000        1.0079           0
   25399 O1   104  DMPC H13Y HAL2   0.090000        1.0079           0
   25400 O1   104  DMPC C314 CTL3  -0.270000       12.0107           0
   25401 O1   104  DMPC H14X HAL3   0.090000        1.0079           0
   25402 O1   104  DMPC H14Y HAL3   0.090000        1.0079           0
   25403 O1   104  DMPC H14Z HAL3   0.090000        1.0079           0
   25404 O1   105  DMPC N    NTL   -0.600000       14.0067           0
   25405 O1   105  DMPC C13  CTL5  -0.350000       12.0107           0
   25406 O1   105  DMPC H13A HL     0.250000        1.0079           0
   25407 O1   105  DMPC H13B HL     0.250000        1.0079           0
   25408 O1   105  DMPC H13C HL     0.250000        1.0079           0
   25409 O1   105  DMPC C14  CTL5  -0.350000       12.0107           0
   25410 O1   105  DMPC H14A HL     0.250000        1.0079           0
   25411 O1   105  DMPC H14B HL     0.250000        1.0079           0
   25412 O1   105  DMPC H14C HL     0.250000        1.0079           0
   25413 O1   105  DMPC C15  CTL5  -0.350000       12.0107           0
   25414 O1   105  DMPC H15A HL     0.250000        1.0079           0
   25415 O1   105  DMPC H15B HL     0.250000        1.0079           0
   25416 O1   105  DMPC H15C HL     0.250000        1.0079           0
   25417 O1   105  DMPC C12  CTL2  -0.100000       12.0107           0
   25418 O1   105  DMPC H12A HL     0.250000        1.0079           0
   25419 O1   105  DMPC H12B HL     0.250000        1.0079           0
   25420 O1   105  DMPC C11  CTL2  -0.080000       12.0107           0
   25421 O1   105  DMPC H11A HAL2   0.090000        1.0079           0
   25422 O1   105  DMPC H11B HAL2   0.090000        1.0079           0
   25423 O1   105  DMPC P    PL     1.500000       30.9738           0
   25424 O1   105  DMPC O13  O2L   -0.780000       15.9994           0
   25425 O1   105  DMPC O14  O2L   -0.780000       15.9994           0
   25426 O1   105  DMPC O11  OSLP  -0.570000       15.9994           0
   25427 O1   105  DMPC O12  OSLP  -0.570000       15.9994           0
   25428 O1   105  DMPC C1   CTL2  -0.080000       12.0107           0
   25429 O1   105  DMPC HA   HAL2   0.090000        1.0079           0
   25430 O1   105  DMPC HB   HAL2   0.090000        1.0079           0
   25431 O1   105  DMPC C2   CTL1   0.170000       12.0107           0
   25432 O1   105  DMPC HS   HAL1   0.090000        1.0079           0
   25433 O1   105  DMPC O21  OSL   -0.490000       15.9994           0
   25434 O1   105  DMPC C21  CL     0.900000       12.0107           0
   25435 O1   105  DMPC O22  OBL   -0.630000       15.9994           0
   25436 O1   105  DMPC C22  CTL2  -0.220000       12.0107           0
   25437 O1   105  DMPC H2R  HAL2   0.090000        1.0079           0
   25438 O1   105  DMPC H2S  HAL2   0.090000        1.0079           0
   25439 O1   105  DMPC C3   CTL2   0.080000       12.0107           0
   25440 O1   105  DMPC HX   HAL2   0.090000        1.0079           0
   25441 O1   105  DMPC HY   HAL2   0.090000        1.0079           0
   25442 O1   105  DMPC O31  OSL   -0.490000       15.9994           0
   25443 O1   105  DMPC C31  CL     0.900000       12.0107           0
   25444 O1   105  DMPC O32  OBL   -0.630000       15.9994           0
   25445 O1   105  DMPC C32  CTL2  -0.220000       12.0107           0
   25446 O1   105  DMPC H2X  HAL2   0.090000        1.0079           0
   25447 O1   105  DMPC H2Y  HAL2   0.090000        1.0079           0
   25448 O1   105  DMPC C23  CTL2  -0.180000       12.0107           0
   25449 O1   105  DMPC H3R  HAL2   0.090000        1.0079           0
   25450 O1   105  DMPC H3S  HAL2   0.090000        1.0079           0
   25451 O1   105  DMPC C24  CTL2  -0.180000       12.0107           0
   25452 O1   105  DMPC H4R  HAL2   0.090000        1.0079           0
   25453 O1   105  DMPC H4S  HAL2   0.090000        1.0079           0
   25454 O1   105  DMPC C25  CTL2  -0.180000       12.0107           0
   25455 O1   105  DMPC H5R  HAL2   0.090000        1.0079           0
   25456 O1   105  DMPC H5S  HAL2   0.090000        1.0079           0
   25457 O1   105  DMPC C26  CTL2  -0.180000       12.0107           0
   25458 O1   105  DMPC H6R  HAL2   0.090000        1.0079           0
   25459 O1   105  DMPC H6S  HAL2   0.090000        1.0079           0
   25460 O1   105  DMPC C27  CTL2  -0.180000       12.0107           0
   25461 O1   105  DMPC H7R  HAL2   0.090000        1.0079           0
   25462 O1   105  DMPC H7S  HAL2   0.090000        1.0079           0
   25463 O1   105  DMPC C28  CTL2  -0.180000       12.0107           0
   25464 O1   105  DMPC H8R  HAL2   0.090000        1.0079           0
   25465 O1   105  DMPC H8S  HAL2   0.090000        1.0079           0
   25466 O1   105  DMPC C29  CTL2  -0.180000       12.0107           0
   25467 O1   105  DMPC H9R  HAL2   0.090000        1.0079           0
   25468 O1   105  DMPC H9S  HAL2   0.090000        1.0079           0
   25469 O1   105  DMPC C210 CTL2  -0.180000       12.0107           0
   25470 O1   105  DMPC H10R HAL2   0.090000        1.0079           0
   25471 O1   105  DMPC H10S HAL2   0.090000        1.0079           0
   25472 O1   105  DMPC C211 CTL2  -0.180000       12.0107           0
   25473 O1   105  DMPC H11R HAL2   0.090000        1.0079           0
   25474 O1   105  DMPC H11S HAL2   0.090000        1.0079           0
   25475 O1   105  DMPC C212 CTL2  -0.180000       12.0107           0
   25476 O1   105  DMPC H12R HAL2   0.090000        1.0079           0
   25477 O1   105  DMPC H12S HAL2   0.090000        1.0079           0
   25478 O1   105  DMPC C213 CTL2  -0.180000       12.0107           0
   25479 O1   105  DMPC H13R HAL2   0.090000        1.0079           0
   25480 O1   105  DMPC H13S HAL2   0.090000        1.0079           0
   25481 O1   105  DMPC C214 CTL3  -0.270000       12.0107           0
   25482 O1   105  DMPC H14R HAL3   0.090000        1.0079           0
   25483 O1   105  DMPC H14S HAL3   0.090000        1.0079           0
   25484 O1   105  DMPC H14T HAL3   0.090000        1.0079           0
   25485 O1   105  DMPC C33  CTL2  -0.180000       12.0107           0
   25486 O1   105  DMPC H3X  HAL2   0.090000        1.0079           0
   25487 O1   105  DMPC H3Y  HAL2   0.090000        1.0079           0
   25488 O1   105  DMPC C34  CTL2  -0.180000       12.0107           0
   25489 O1   105  DMPC H4X  HAL2   0.090000        1.0079           0
   25490 O1   105  DMPC H4Y  HAL2   0.090000        1.0079           0
   25491 O1   105  DMPC C35  CTL2  -0.180000       12.0107           0
   25492 O1   105  DMPC H5X  HAL2   0.090000        1.0079           0
   25493 O1   105  DMPC H5Y  HAL2   0.090000        1.0079           0
   25494 O1   105  DMPC C36  CTL2  -0.180000       12.0107           0
   25495 O1   105  DMPC H6X  HAL2   0.090000        1.0079           0
   25496 O1   105  DMPC H6Y  HAL2   0.090000        1.0079           0
   25497 O1   105  DMPC C37  CTL2  -0.180000       12.0107           0
   25498 O1   105  DMPC H7X  HAL2   0.090000        1.0079           0
   25499 O1   105  DMPC H7Y  HAL2   0.090000        1.0079           0
   25500 O1   105  DMPC C38  CTL2  -0.180000       12.0107           0
   25501 O1   105  DMPC H8X  HAL2   0.090000        1.0079           0
   25502 O1   105  DMPC H8Y  HAL2   0.090000        1.0079           0
   25503 O1   105  DMPC C39  CTL2  -0.180000       12.0107           0
   25504 O1   105  DMPC H9X  HAL2   0.090000        1.0079           0
   25505 O1   105  DMPC H9Y  HAL2   0.090000        1.0079           0
   25506 O1   105  DMPC C310 CTL2  -0.180000       12.0107           0
   25507 O1   105  DMPC H10X HAL2   0.090000        1.0079           0
   25508 O1   105  DMPC H10Y HAL2   0.090000        1.0079           0
   25509 O1   105  DMPC C311 CTL2  -0.180000       12.0107           0
   25510 O1   105  DMPC H11X HAL2   0.090000        1.0079           0
   25511 O1   105  DMPC H11Y HAL2   0.090000        1.0079           0
   25512 O1   105  DMPC C312 CTL2  -0.180000       12.0107           0
   25513 O1   105  DMPC H12X HAL2   0.090000        1.0079           0
   25514 O1   105  DMPC H12Y HAL2   0.090000        1.0079           0
   25515 O1   105  DMPC C313 CTL2  -0.180000       12.0107           0
   25516 O1   105  DMPC H13X HAL2   0.090000        1.0079           0
   25517 O1   105  DMPC H13Y HAL2   0.090000        1.0079           0
   25518 O1   105  DMPC C314 CTL3  -0.270000       12.0107           0
   25519 O1   105  DMPC H14X HAL3   0.090000        1.0079           0
   25520 O1   105  DMPC H14Y HAL3   0.090000        1.0079           0
   25521 O1   105  DMPC H14Z HAL3   0.090000        1.0079           0
   25522 O1   106  DMPC N    NTL   -0.600000       14.0067           0
   25523 O1   106  DMPC C13  CTL5  -0.350000       12.0107           0
   25524 O1   106  DMPC H13A HL     0.250000        1.0079           0
   25525 O1   106  DMPC H13B HL     0.250000        1.0079           0
   25526 O1   106  DMPC H13C HL     0.250000        1.0079           0
   25527 O1   106  DMPC C14  CTL5  -0.350000       12.0107           0
   25528 O1   106  DMPC H14A HL     0.250000        1.0079           0
   25529 O1   106  DMPC H14B HL     0.250000        1.0079           0
   25530 O1   106  DMPC H14C HL     0.250000        1.0079           0
   25531 O1   106  DMPC C15  CTL5  -0.350000       12.0107           0
   25532 O1   106  DMPC H15A HL     0.250000        1.0079           0
   25533 O1   106  DMPC H15B HL     0.250000        1.0079           0
   25534 O1   106  DMPC H15C HL     0.250000        1.0079           0
   25535 O1   106  DMPC C12  CTL2  -0.100000       12.0107           0
   25536 O1   106  DMPC H12A HL     0.250000        1.0079           0
   25537 O1   106  DMPC H12B HL     0.250000        1.0079           0
   25538 O1   106  DMPC C11  CTL2  -0.080000       12.0107           0
   25539 O1   106  DMPC H11A HAL2   0.090000        1.0079           0
   25540 O1   106  DMPC H11B HAL2   0.090000        1.0079           0
   25541 O1   106  DMPC P    PL     1.500000       30.9738           0
   25542 O1   106  DMPC O13  O2L   -0.780000       15.9994           0
   25543 O1   106  DMPC O14  O2L   -0.780000       15.9994           0
   25544 O1   106  DMPC O11  OSLP  -0.570000       15.9994           0
   25545 O1   106  DMPC O12  OSLP  -0.570000       15.9994           0
   25546 O1   106  DMPC C1   CTL2  -0.080000       12.0107           0
   25547 O1   106  DMPC HA   HAL2   0.090000        1.0079           0
   25548 O1   106  DMPC HB   HAL2   0.090000        1.0079           0
   25549 O1   106  DMPC C2   CTL1   0.170000       12.0107           0
   25550 O1   106  DMPC HS   HAL1   0.090000        1.0079           0
   25551 O1   106  DMPC O21  OSL   -0.490000       15.9994           0
   25552 O1   106  DMPC C21  CL     0.900000       12.0107           0
   25553 O1   106  DMPC O22  OBL   -0.630000       15.9994           0
   25554 O1   106  DMPC C22  CTL2  -0.220000       12.0107           0
   25555 O1   106  DMPC H2R  HAL2   0.090000        1.0079           0
   25556 O1   106  DMPC H2S  HAL2   0.090000        1.0079           0
   25557 O1   106  DMPC C3   CTL2   0.080000       12.0107           0
   25558 O1   106  DMPC HX   HAL2   0.090000        1.0079           0
   25559 O1   106  DMPC HY   HAL2   0.090000        1.0079           0
   25560 O1   106  DMPC O31  OSL   -0.490000       15.9994           0
   25561 O1   106  DMPC C31  CL     0.900000       12.0107           0
   25562 O1   106  DMPC O32  OBL   -0.630000       15.9994           0
   25563 O1   106  DMPC C32  CTL2  -0.220000       12.0107           0
   25564 O1   106  DMPC H2X  HAL2   0.090000        1.0079           0
   25565 O1   106  DMPC H2Y  HAL2   0.090000        1.0079           0
   25566 O1   106  DMPC C23  CTL2  -0.180000       12.0107           0
   25567 O1   106  DMPC H3R  HAL2   0.090000        1.0079           0
   25568 O1   106  DMPC H3S  HAL2   0.090000        1.0079           0
   25569 O1   106  DMPC C24  CTL2  -0.180000       12.0107           0
   25570 O1   106  DMPC H4R  HAL2   0.090000        1.0079           0
   25571 O1   106  DMPC H4S  HAL2   0.090000        1.0079           0
   25572 O1   106  DMPC C25  CTL2  -0.180000       12.0107           0
   25573 O1   106  DMPC H5R  HAL2   0.090000        1.0079           0
   25574 O1   106  DMPC H5S  HAL2   0.090000        1.0079           0
   25575 O1   106  DMPC C26  CTL2  -0.180000       12.0107           0
   25576 O1   106  DMPC H6R  HAL2   0.090000        1.0079           0
   25577 O1   106  DMPC H6S  HAL2   0.090000        1.0079           0
   25578 O1   106  DMPC C27  CTL2  -0.180000       12.0107           0
   25579 O1   106  DMPC H7R  HAL2   0.090000        1.0079           0
   25580 O1   106  DMPC H7S  HAL2   0.090000        1.0079           0
   25581 O1   106  DMPC C28  CTL2  -0.180000       12.0107           0
   25582 O1   106  DMPC H8R  HAL2   0.090000        1.0079           0
   25583 O1   106  DMPC H8S  HAL2   0.090000        1.0079           0
   25584 O1   106  DMPC C29  CTL2  -0.180000       12.0107           0
   25585 O1   106  DMPC H9R  HAL2   0.090000        1.0079           0
   25586 O1   106  DMPC H9S  HAL2   0.090000        1.0079           0
   25587 O1   106  DMPC C210 CTL2  -0.180000       12.0107           0
   25588 O1   106  DMPC H10R HAL2   0.090000        1.0079           0
   25589 O1   106  DMPC H10S HAL2   0.090000        1.0079           0
   25590 O1   106  DMPC C211 CTL2  -0.180000       12.0107           0
   25591 O1   106  DMPC H11R HAL2   0.090000        1.0079           0
   25592 O1   106  DMPC H11S HAL2   0.090000        1.0079           0
   25593 O1   106  DMPC C212 CTL2  -0.180000       12.0107           0
   25594 O1   106  DMPC H12R HAL2   0.090000        1.0079           0
   25595 O1   106  DMPC H12S HAL2   0.090000        1.0079           0
   25596 O1   106  DMPC C213 CTL2  -0.180000       12.0107           0
   25597 O1   106  DMPC H13R HAL2   0.090000        1.0079           0
   25598 O1   106  DMPC H13S HAL2   0.090000        1.0079           0
   25599 O1   106  DMPC C214 CTL3  -0.270000       12.0107           0
   25600 O1   106  DMPC H14R HAL3   0.090000        1.0079           0
   25601 O1   106  DMPC H14S HAL3   0.090000        1.0079           0
   25602 O1   106  DMPC H14T HAL3   0.090000        1.0079           0
   25603 O1   106  DMPC C33  CTL2  -0.180000       12.0107           0
   25604 O1   106  DMPC H3X  HAL2   0.090000        1.0079           0
   25605 O1   106  DMPC H3Y  HAL2   0.090000        1.0079           0
   25606 O1   106  DMPC C34  CTL2  -0.180000       12.0107           0
   25607 O1   106  DMPC H4X  HAL2   0.090000        1.0079           0
   25608 O1   106  DMPC H4Y  HAL2   0.090000        1.0079           0
   25609 O1   106  DMPC C35  CTL2  -0.180000       12.0107           0
   25610 O1   106  DMPC H5X  HAL2   0.090000        1.0079           0
   25611 O1   106  DMPC H5Y  HAL2   0.090000        1.0079           0
   25612 O1   106  DMPC C36  CTL2  -0.180000       12.0107           0
   25613 O1   106  DMPC H6X  HAL2   0.090000        1.0079           0
   25614 O1   106  DMPC H6Y  HAL2   0.090000        1.0079           0
   25615 O1   106  DMPC C37  CTL2  -0.180000       12.0107           0
   25616 O1   106  DMPC H7X  HAL2   0.090000        1.0079           0
   25617 O1   106  DMPC H7Y  HAL2   0.090000        1.0079           0
   25618 O1   106  DMPC C38  CTL2  -0.180000       12.0107           0
   25619 O1   106  DMPC H8X  HAL2   0.090000        1.0079           0
   25620 O1   106  DMPC H8Y  HAL2   0.090000        1.0079           0
   25621 O1   106  DMPC C39  CTL2  -0.180000       12.0107           0
   25622 O1   106  DMPC H9X  HAL2   0.090000        1.0079           0
   25623 O1   106  DMPC H9Y  HAL2   0.090000        1.0079           0
   25624 O1   106  DMPC C310 CTL2  -0.180000       12.0107           0
   25625 O1   106  DMPC H10X HAL2   0.090000        1.0079           0
   25626 O1   106  DMPC H10Y HAL2   0.090000        1.0079           0
   25627 O1   106  DMPC C311 CTL2  -0.180000       12.0107           0
   25628 O1   106  DMPC H11X HAL2   0.090000        1.0079           0
   25629 O1   106  DMPC H11Y HAL2   0.090000        1.0079           0
   25630 O1   106  DMPC C312 CTL2  -0.180000       12.0107           0
   25631 O1   106  DMPC H12X HAL2   0.090000        1.0079           0
   25632 O1   106  DMPC H12Y HAL2   0.090000        1.0079           0
   25633 O1   106  DMPC C313 CTL2  -0.180000       12.0107           0
   25634 O1   106  DMPC H13X HAL2   0.090000        1.0079           0
   25635 O1   106  DMPC H13Y HAL2   0.090000        1.0079           0
   25636 O1   106  DMPC C314 CTL3  -0.270000       12.0107           0
   25637 O1   106  DMPC H14X HAL3   0.090000        1.0079           0
   25638 O1   106  DMPC H14Y HAL3   0.090000        1.0079           0
   25639 O1   106  DMPC H14Z HAL3   0.090000        1.0079           0
   25640 O1   107  DMPC N    NTL   -0.600000       14.0067           0
   25641 O1   107  DMPC C13  CTL5  -0.350000       12.0107           0
   25642 O1   107  DMPC H13A HL     0.250000        1.0079           0
   25643 O1   107  DMPC H13B HL     0.250000        1.0079           0
   25644 O1   107  DMPC H13C HL     0.250000        1.0079           0
   25645 O1   107  DMPC C14  CTL5  -0.350000       12.0107           0
   25646 O1   107  DMPC H14A HL     0.250000        1.0079           0
   25647 O1   107  DMPC H14B HL     0.250000        1.0079           0
   25648 O1   107  DMPC H14C HL     0.250000        1.0079           0
   25649 O1   107  DMPC C15  CTL5  -0.350000       12.0107           0
   25650 O1   107  DMPC H15A HL     0.250000        1.0079           0
   25651 O1   107  DMPC H15B HL     0.250000        1.0079           0
   25652 O1   107  DMPC H15C HL     0.250000        1.0079           0
   25653 O1   107  DMPC C12  CTL2  -0.100000       12.0107           0
   25654 O1   107  DMPC H12A HL     0.250000        1.0079           0
   25655 O1   107  DMPC H12B HL     0.250000        1.0079           0
   25656 O1   107  DMPC C11  CTL2  -0.080000       12.0107           0
   25657 O1   107  DMPC H11A HAL2   0.090000        1.0079           0
   25658 O1   107  DMPC H11B HAL2   0.090000        1.0079           0
   25659 O1   107  DMPC P    PL     1.500000       30.9738           0
   25660 O1   107  DMPC O13  O2L   -0.780000       15.9994           0
   25661 O1   107  DMPC O14  O2L   -0.780000       15.9994           0
   25662 O1   107  DMPC O11  OSLP  -0.570000       15.9994           0
   25663 O1   107  DMPC O12  OSLP  -0.570000       15.9994           0
   25664 O1   107  DMPC C1   CTL2  -0.080000       12.0107           0
   25665 O1   107  DMPC HA   HAL2   0.090000        1.0079           0
   25666 O1   107  DMPC HB   HAL2   0.090000        1.0079           0
   25667 O1   107  DMPC C2   CTL1   0.170000       12.0107           0
   25668 O1   107  DMPC HS   HAL1   0.090000        1.0079           0
   25669 O1   107  DMPC O21  OSL   -0.490000       15.9994           0
   25670 O1   107  DMPC C21  CL     0.900000       12.0107           0
   25671 O1   107  DMPC O22  OBL   -0.630000       15.9994           0
   25672 O1   107  DMPC C22  CTL2  -0.220000       12.0107           0
   25673 O1   107  DMPC H2R  HAL2   0.090000        1.0079           0
   25674 O1   107  DMPC H2S  HAL2   0.090000        1.0079           0
   25675 O1   107  DMPC C3   CTL2   0.080000       12.0107           0
   25676 O1   107  DMPC HX   HAL2   0.090000        1.0079           0
   25677 O1   107  DMPC HY   HAL2   0.090000        1.0079           0
   25678 O1   107  DMPC O31  OSL   -0.490000       15.9994           0
   25679 O1   107  DMPC C31  CL     0.900000       12.0107           0
   25680 O1   107  DMPC O32  OBL   -0.630000       15.9994           0
   25681 O1   107  DMPC C32  CTL2  -0.220000       12.0107           0
   25682 O1   107  DMPC H2X  HAL2   0.090000        1.0079           0
   25683 O1   107  DMPC H2Y  HAL2   0.090000        1.0079           0
   25684 O1   107  DMPC C23  CTL2  -0.180000       12.0107           0
   25685 O1   107  DMPC H3R  HAL2   0.090000        1.0079           0
   25686 O1   107  DMPC H3S  HAL2   0.090000        1.0079           0
   25687 O1   107  DMPC C24  CTL2  -0.180000       12.0107           0
   25688 O1   107  DMPC H4R  HAL2   0.090000        1.0079           0
   25689 O1   107  DMPC H4S  HAL2   0.090000        1.0079           0
   25690 O1   107  DMPC C25  CTL2  -0.180000       12.0107           0
   25691 O1   107  DMPC H5R  HAL2   0.090000        1.0079           0
   25692 O1   107  DMPC H5S  HAL2   0.090000        1.0079           0
   25693 O1   107  DMPC C26  CTL2  -0.180000       12.0107           0
   25694 O1   107  DMPC H6R  HAL2   0.090000        1.0079           0
   25695 O1   107  DMPC H6S  HAL2   0.090000        1.0079           0
   25696 O1   107  DMPC C27  CTL2  -0.180000       12.0107           0
   25697 O1   107  DMPC H7R  HAL2   0.090000        1.0079           0
   25698 O1   107  DMPC H7S  HAL2   0.090000        1.0079           0
   25699 O1   107  DMPC C28  CTL2  -0.180000       12.0107           0
   25700 O1   107  DMPC H8R  HAL2   0.090000        1.0079           0
   25701 O1   107  DMPC H8S  HAL2   0.090000        1.0079           0
   25702 O1   107  DMPC C29  CTL2  -0.180000       12.0107           0
   25703 O1   107  DMPC H9R  HAL2   0.090000        1.0079           0
   25704 O1   107  DMPC H9S  HAL2   0.090000        1.0079           0
   25705 O1   107  DMPC C210 CTL2  -0.180000       12.0107           0
   25706 O1   107  DMPC H10R HAL2   0.090000        1.0079           0
   25707 O1   107  DMPC H10S HAL2   0.090000        1.0079           0
   25708 O1   107  DMPC C211 CTL2  -0.180000       12.0107           0
   25709 O1   107  DMPC H11R HAL2   0.090000        1.0079           0
   25710 O1   107  DMPC H11S HAL2   0.090000        1.0079           0
   25711 O1   107  DMPC C212 CTL2  -0.180000       12.0107           0
   25712 O1   107  DMPC H12R HAL2   0.090000        1.0079           0
   25713 O1   107  DMPC H12S HAL2   0.090000        1.0079           0
   25714 O1   107  DMPC C213 CTL2  -0.180000       12.0107           0
   25715 O1   107  DMPC H13R HAL2   0.090000        1.0079           0
   25716 O1   107  DMPC H13S HAL2   0.090000        1.0079           0
   25717 O1   107  DMPC C214 CTL3  -0.270000       12.0107           0
   25718 O1   107  DMPC H14R HAL3   0.090000        1.0079           0
   25719 O1   107  DMPC H14S HAL3   0.090000        1.0079           0
   25720 O1   107  DMPC H14T HAL3   0.090000        1.0079           0
   25721 O1   107  DMPC C33  CTL2  -0.180000       12.0107           0
   25722 O1   107  DMPC H3X  HAL2   0.090000        1.0079           0
   25723 O1   107  DMPC H3Y  HAL2   0.090000        1.0079           0
   25724 O1   107  DMPC C34  CTL2  -0.180000       12.0107           0
   25725 O1   107  DMPC H4X  HAL2   0.090000        1.0079           0
   25726 O1   107  DMPC H4Y  HAL2   0.090000        1.0079           0
   25727 O1   107  DMPC C35  CTL2  -0.180000       12.0107           0
   25728 O1   107  DMPC H5X  HAL2   0.090000        1.0079           0
   25729 O1   107  DMPC H5Y  HAL2   0.090000        1.0079           0
   25730 O1   107  DMPC C36  CTL2  -0.180000       12.0107           0
   25731 O1   107  DMPC H6X  HAL2   0.090000        1.0079           0
   25732 O1   107  DMPC H6Y  HAL2   0.090000        1.0079           0
   25733 O1   107  DMPC C37  CTL2  -0.180000       12.0107           0
   25734 O1   107  DMPC H7X  HAL2   0.090000        1.0079           0
   25735 O1   107  DMPC H7Y  HAL2   0.090000        1.0079           0
   25736 O1   107  DMPC C38  CTL2  -0.180000       12.0107           0
   25737 O1   107  DMPC H8X  HAL2   0.090000        1.0079           0
   25738 O1   107  DMPC H8Y  HAL2   0.090000        1.0079           0
   25739 O1   107  DMPC C39  CTL2  -0.180000       12.0107           0
   25740 O1   107  DMPC H9X  HAL2   0.090000        1.0079           0
   25741 O1   107  DMPC H9Y  HAL2   0.090000        1.0079           0
   25742 O1   107  DMPC C310 CTL2  -0.180000       12.0107           0
   25743 O1   107  DMPC H10X HAL2   0.090000        1.0079           0
   25744 O1   107  DMPC H10Y HAL2   0.090000        1.0079           0
   25745 O1   107  DMPC C311 CTL2  -0.180000       12.0107           0
   25746 O1   107  DMPC H11X HAL2   0.090000        1.0079           0
   25747 O1   107  DMPC H11Y HAL2   0.090000        1.0079           0
   25748 O1   107  DMPC C312 CTL2  -0.180000       12.0107           0
   25749 O1   107  DMPC H12X HAL2   0.090000        1.0079           0
   25750 O1   107  DMPC H12Y HAL2   0.090000        1.0079           0
   25751 O1   107  DMPC C313 CTL2  -0.180000       12.0107           0
   25752 O1   107  DMPC H13X HAL2   0.090000        1.0079           0
   25753 O1   107  DMPC H13Y HAL2   0.090000        1.0079           0
   25754 O1   107  DMPC C314 CTL3  -0.270000       12.0107           0
   25755 O1   107  DMPC H14X HAL3   0.090000        1.0079           0
   25756 O1   107  DMPC H14Y HAL3   0.090000        1.0079           0
   25757 O1   107  DMPC H14Z HAL3   0.090000        1.0079           0
   25758 O1   108  DMPC N    NTL   -0.600000       14.0067           0
   25759 O1   108  DMPC C13  CTL5  -0.350000       12.0107           0
   25760 O1   108  DMPC H13A HL     0.250000        1.0079           0
   25761 O1   108  DMPC H13B HL     0.250000        1.0079           0
   25762 O1   108  DMPC H13C HL     0.250000        1.0079           0
   25763 O1   108  DMPC C14  CTL5  -0.350000       12.0107           0
   25764 O1   108  DMPC H14A HL     0.250000        1.0079           0
   25765 O1   108  DMPC H14B HL     0.250000        1.0079           0
   25766 O1   108  DMPC H14C HL     0.250000        1.0079           0
   25767 O1   108  DMPC C15  CTL5  -0.350000       12.0107           0
   25768 O1   108  DMPC H15A HL     0.250000        1.0079           0
   25769 O1   108  DMPC H15B HL     0.250000        1.0079           0
   25770 O1   108  DMPC H15C HL     0.250000        1.0079           0
   25771 O1   108  DMPC C12  CTL2  -0.100000       12.0107           0
   25772 O1   108  DMPC H12A HL     0.250000        1.0079           0
   25773 O1   108  DMPC H12B HL     0.250000        1.0079           0
   25774 O1   108  DMPC C11  CTL2  -0.080000       12.0107           0
   25775 O1   108  DMPC H11A HAL2   0.090000        1.0079           0
   25776 O1   108  DMPC H11B HAL2   0.090000        1.0079           0
   25777 O1   108  DMPC P    PL     1.500000       30.9738           0
   25778 O1   108  DMPC O13  O2L   -0.780000       15.9994           0
   25779 O1   108  DMPC O14  O2L   -0.780000       15.9994           0
   25780 O1   108  DMPC O11  OSLP  -0.570000       15.9994           0
   25781 O1   108  DMPC O12  OSLP  -0.570000       15.9994           0
   25782 O1   108  DMPC C1   CTL2  -0.080000       12.0107           0
   25783 O1   108  DMPC HA   HAL2   0.090000        1.0079           0
   25784 O1   108  DMPC HB   HAL2   0.090000        1.0079           0
   25785 O1   108  DMPC C2   CTL1   0.170000       12.0107           0
   25786 O1   108  DMPC HS   HAL1   0.090000        1.0079           0
   25787 O1   108  DMPC O21  OSL   -0.490000       15.9994           0
   25788 O1   108  DMPC C21  CL     0.900000       12.0107           0
   25789 O1   108  DMPC O22  OBL   -0.630000       15.9994           0
   25790 O1   108  DMPC C22  CTL2  -0.220000       12.0107           0
   25791 O1   108  DMPC H2R  HAL2   0.090000        1.0079           0
   25792 O1   108  DMPC H2S  HAL2   0.090000        1.0079           0
   25793 O1   108  DMPC C3   CTL2   0.080000       12.0107           0
   25794 O1   108  DMPC HX   HAL2   0.090000        1.0079           0
   25795 O1   108  DMPC HY   HAL2   0.090000        1.0079           0
   25796 O1   108  DMPC O31  OSL   -0.490000       15.9994           0
   25797 O1   108  DMPC C31  CL     0.900000       12.0107           0
   25798 O1   108  DMPC O32  OBL   -0.630000       15.9994           0
   25799 O1   108  DMPC C32  CTL2  -0.220000       12.0107           0
   25800 O1   108  DMPC H2X  HAL2   0.090000        1.0079           0
   25801 O1   108  DMPC H2Y  HAL2   0.090000        1.0079           0
   25802 O1   108  DMPC C23  CTL2  -0.180000       12.0107           0
   25803 O1   108  DMPC H3R  HAL2   0.090000        1.0079           0
   25804 O1   108  DMPC H3S  HAL2   0.090000        1.0079           0
   25805 O1   108  DMPC C24  CTL2  -0.180000       12.0107           0
   25806 O1   108  DMPC H4R  HAL2   0.090000        1.0079           0
   25807 O1   108  DMPC H4S  HAL2   0.090000        1.0079           0
   25808 O1   108  DMPC C25  CTL2  -0.180000       12.0107           0
   25809 O1   108  DMPC H5R  HAL2   0.090000        1.0079           0
   25810 O1   108  DMPC H5S  HAL2   0.090000        1.0079           0
   25811 O1   108  DMPC C26  CTL2  -0.180000       12.0107           0
   25812 O1   108  DMPC H6R  HAL2   0.090000        1.0079           0
   25813 O1   108  DMPC H6S  HAL2   0.090000        1.0079           0
   25814 O1   108  DMPC C27  CTL2  -0.180000       12.0107           0
   25815 O1   108  DMPC H7R  HAL2   0.090000        1.0079           0
   25816 O1   108  DMPC H7S  HAL2   0.090000        1.0079           0
   25817 O1   108  DMPC C28  CTL2  -0.180000       12.0107           0
   25818 O1   108  DMPC H8R  HAL2   0.090000        1.0079           0
   25819 O1   108  DMPC H8S  HAL2   0.090000        1.0079           0
   25820 O1   108  DMPC C29  CTL2  -0.180000       12.0107           0
   25821 O1   108  DMPC H9R  HAL2   0.090000        1.0079           0
   25822 O1   108  DMPC H9S  HAL2   0.090000        1.0079           0
   25823 O1   108  DMPC C210 CTL2  -0.180000       12.0107           0
   25824 O1   108  DMPC H10R HAL2   0.090000        1.0079           0
   25825 O1   108  DMPC H10S HAL2   0.090000        1.0079           0
   25826 O1   108  DMPC C211 CTL2  -0.180000       12.0107           0
   25827 O1   108  DMPC H11R HAL2   0.090000        1.0079           0
   25828 O1   108  DMPC H11S HAL2   0.090000        1.0079           0
   25829 O1   108  DMPC C212 CTL2  -0.180000       12.0107           0
   25830 O1   108  DMPC H12R HAL2   0.090000        1.0079           0
   25831 O1   108  DMPC H12S HAL2   0.090000        1.0079           0
   25832 O1   108  DMPC C213 CTL2  -0.180000       12.0107           0
   25833 O1   108  DMPC H13R HAL2   0.090000        1.0079           0
   25834 O1   108  DMPC H13S HAL2   0.090000        1.0079           0
   25835 O1   108  DMPC C214 CTL3  -0.270000       12.0107           0
   25836 O1   108  DMPC H14R HAL3   0.090000        1.0079           0
   25837 O1   108  DMPC H14S HAL3   0.090000        1.0079           0
   25838 O1   108  DMPC H14T HAL3   0.090000        1.0079           0
   25839 O1   108  DMPC C33  CTL2  -0.180000       12.0107           0
   25840 O1   108  DMPC H3X  HAL2   0.090000        1.0079           0
   25841 O1   108  DMPC H3Y  HAL2   0.090000        1.0079           0
   25842 O1   108  DMPC C34  CTL2  -0.180000       12.0107           0
   25843 O1   108  DMPC H4X  HAL2   0.090000        1.0079           0
   25844 O1   108  DMPC H4Y  HAL2   0.090000        1.0079           0
   25845 O1   108  DMPC C35  CTL2  -0.180000       12.0107           0
   25846 O1   108  DMPC H5X  HAL2   0.090000        1.0079           0
   25847 O1   108  DMPC H5Y  HAL2   0.090000        1.0079           0
   25848 O1   108  DMPC C36  CTL2  -0.180000       12.0107           0
   25849 O1   108  DMPC H6X  HAL2   0.090000        1.0079           0
   25850 O1   108  DMPC H6Y  HAL2   0.090000        1.0079           0
   25851 O1   108  DMPC C37  CTL2  -0.180000       12.0107           0
   25852 O1   108  DMPC H7X  HAL2   0.090000        1.0079           0
   25853 O1   108  DMPC H7Y  HAL2   0.090000        1.0079           0
   25854 O1   108  DMPC C38  CTL2  -0.180000       12.0107           0
   25855 O1   108  DMPC H8X  HAL2   0.090000        1.0079           0
   25856 O1   108  DMPC H8Y  HAL2   0.090000        1.0079           0
   25857 O1   108  DMPC C39  CTL2  -0.180000       12.0107           0
   25858 O1   108  DMPC H9X  HAL2   0.090000        1.0079           0
   25859 O1   108  DMPC H9Y  HAL2   0.090000        1.0079           0
   25860 O1   108  DMPC C310 CTL2  -0.180000       12.0107           0
   25861 O1   108  DMPC H10X HAL2   0.090000        1.0079           0
   25862 O1   108  DMPC H10Y HAL2   0.090000        1.0079           0
   25863 O1   108  DMPC C311 CTL2  -0.180000       12.0107           0
   25864 O1   108  DMPC H11X HAL2   0.090000        1.0079           0
   25865 O1   108  DMPC H11Y HAL2   0.090000        1.0079           0
   25866 O1   108  DMPC C312 CTL2  -0.180000       12.0107           0
   25867 O1   108  DMPC H12X HAL2   0.090000        1.0079           0
   25868 O1   108  DMPC H12Y HAL2   0.090000        1.0079           0
   25869 O1   108  DMPC C313 CTL2  -0.180000       12.0107           0
   25870 O1   108  DMPC H13X HAL2   0.090000        1.0079           0
   25871 O1   108  DMPC H13Y HAL2   0.090000        1.0079           0
   25872 O1   108  DMPC C314 CTL3  -0.270000       12.0107           0
   25873 O1   108  DMPC H14X HAL3   0.090000        1.0079           0
   25874 O1   108  DMPC H14Y HAL3   0.090000        1.0079           0
   25875 O1   108  DMPC H14Z HAL3   0.090000        1.0079           0
   25876 O1   109  DMPC N    NTL   -0.600000       14.0067           0
   25877 O1   109  DMPC C13  CTL5  -0.350000       12.0107           0
   25878 O1   109  DMPC H13A HL     0.250000        1.0079           0
   25879 O1   109  DMPC H13B HL     0.250000        1.0079           0
   25880 O1   109  DMPC H13C HL     0.250000        1.0079           0
   25881 O1   109  DMPC C14  CTL5  -0.350000       12.0107           0
   25882 O1   109  DMPC H14A HL     0.250000        1.0079           0
   25883 O1   109  DMPC H14B HL     0.250000        1.0079           0
   25884 O1   109  DMPC H14C HL     0.250000        1.0079           0
   25885 O1   109  DMPC C15  CTL5  -0.350000       12.0107           0
   25886 O1   109  DMPC H15A HL     0.250000        1.0079           0
   25887 O1   109  DMPC H15B HL     0.250000        1.0079           0
   25888 O1   109  DMPC H15C HL     0.250000        1.0079           0
   25889 O1   109  DMPC C12  CTL2  -0.100000       12.0107           0
   25890 O1   109  DMPC H12A HL     0.250000        1.0079           0
   25891 O1   109  DMPC H12B HL     0.250000        1.0079           0
   25892 O1   109  DMPC C11  CTL2  -0.080000       12.0107           0
   25893 O1   109  DMPC H11A HAL2   0.090000        1.0079           0
   25894 O1   109  DMPC H11B HAL2   0.090000        1.0079           0
   25895 O1   109  DMPC P    PL     1.500000       30.9738           0
   25896 O1   109  DMPC O13  O2L   -0.780000       15.9994           0
   25897 O1   109  DMPC O14  O2L   -0.780000       15.9994           0
   25898 O1   109  DMPC O11  OSLP  -0.570000       15.9994           0
   25899 O1   109  DMPC O12  OSLP  -0.570000       15.9994           0
   25900 O1   109  DMPC C1   CTL2  -0.080000       12.0107           0
   25901 O1   109  DMPC HA   HAL2   0.090000        1.0079           0
   25902 O1   109  DMPC HB   HAL2   0.090000        1.0079           0
   25903 O1   109  DMPC C2   CTL1   0.170000       12.0107           0
   25904 O1   109  DMPC HS   HAL1   0.090000        1.0079           0
   25905 O1   109  DMPC O21  OSL   -0.490000       15.9994           0
   25906 O1   109  DMPC C21  CL     0.900000       12.0107           0
   25907 O1   109  DMPC O22  OBL   -0.630000       15.9994           0
   25908 O1   109  DMPC C22  CTL2  -0.220000       12.0107           0
   25909 O1   109  DMPC H2R  HAL2   0.090000        1.0079           0
   25910 O1   109  DMPC H2S  HAL2   0.090000        1.0079           0
   25911 O1   109  DMPC C3   CTL2   0.080000       12.0107           0
   25912 O1   109  DMPC HX   HAL2   0.090000        1.0079           0
   25913 O1   109  DMPC HY   HAL2   0.090000        1.0079           0
   25914 O1   109  DMPC O31  OSL   -0.490000       15.9994           0
   25915 O1   109  DMPC C31  CL     0.900000       12.0107           0
   25916 O1   109  DMPC O32  OBL   -0.630000       15.9994           0
   25917 O1   109  DMPC C32  CTL2  -0.220000       12.0107           0
   25918 O1   109  DMPC H2X  HAL2   0.090000        1.0079           0
   25919 O1   109  DMPC H2Y  HAL2   0.090000        1.0079           0
   25920 O1   109  DMPC C23  CTL2  -0.180000       12.0107           0
   25921 O1   109  DMPC H3R  HAL2   0.090000        1.0079           0
   25922 O1   109  DMPC H3S  HAL2   0.090000        1.0079           0
   25923 O1   109  DMPC C24  CTL2  -0.180000       12.0107           0
   25924 O1   109  DMPC H4R  HAL2   0.090000        1.0079           0
   25925 O1   109  DMPC H4S  HAL2   0.090000        1.0079           0
   25926 O1   109  DMPC C25  CTL2  -0.180000       12.0107           0
   25927 O1   109  DMPC H5R  HAL2   0.090000        1.0079           0
   25928 O1   109  DMPC H5S  HAL2   0.090000        1.0079           0
   25929 O1   109  DMPC C26  CTL2  -0.180000       12.0107           0
   25930 O1   109  DMPC H6R  HAL2   0.090000        1.0079           0
   25931 O1   109  DMPC H6S  HAL2   0.090000        1.0079           0
   25932 O1   109  DMPC C27  CTL2  -0.180000       12.0107           0
   25933 O1   109  DMPC H7R  HAL2   0.090000        1.0079           0
   25934 O1   109  DMPC H7S  HAL2   0.090000        1.0079           0
   25935 O1   109  DMPC C28  CTL2  -0.180000       12.0107           0
   25936 O1   109  DMPC H8R  HAL2   0.090000        1.0079           0
   25937 O1   109  DMPC H8S  HAL2   0.090000        1.0079           0
   25938 O1   109  DMPC C29  CTL2  -0.180000       12.0107           0
   25939 O1   109  DMPC H9R  HAL2   0.090000        1.0079           0
   25940 O1   109  DMPC H9S  HAL2   0.090000        1.0079           0
   25941 O1   109  DMPC C210 CTL2  -0.180000       12.0107           0
   25942 O1   109  DMPC H10R HAL2   0.090000        1.0079           0
   25943 O1   109  DMPC H10S HAL2   0.090000        1.0079           0
   25944 O1   109  DMPC C211 CTL2  -0.180000       12.0107           0
   25945 O1   109  DMPC H11R HAL2   0.090000        1.0079           0
   25946 O1   109  DMPC H11S HAL2   0.090000        1.0079           0
   25947 O1   109  DMPC C212 CTL2  -0.180000       12.0107           0
   25948 O1   109  DMPC H12R HAL2   0.090000        1.0079           0
   25949 O1   109  DMPC H12S HAL2   0.090000        1.0079           0
   25950 O1   109  DMPC C213 CTL2  -0.180000       12.0107           0
   25951 O1   109  DMPC H13R HAL2   0.090000        1.0079           0
   25952 O1   109  DMPC H13S HAL2   0.090000        1.0079           0
   25953 O1   109  DMPC C214 CTL3  -0.270000       12.0107           0
   25954 O1   109  DMPC H14R HAL3   0.090000        1.0079           0
   25955 O1   109  DMPC H14S HAL3   0.090000        1.0079           0
   25956 O1   109  DMPC H14T HAL3   0.090000        1.0079           0
   25957 O1   109  DMPC C33  CTL2  -0.180000       12.0107           0
   25958 O1   109  DMPC H3X  HAL2   0.090000        1.0079           0
   25959 O1   109  DMPC H3Y  HAL2   0.090000        1.0079           0
   25960 O1   109  DMPC C34  CTL2  -0.180000       12.0107           0
   25961 O1   109  DMPC H4X  HAL2   0.090000        1.0079           0
   25962 O1   109  DMPC H4Y  HAL2   0.090000        1.0079           0
   25963 O1   109  DMPC C35  CTL2  -0.180000       12.0107           0
   25964 O1   109  DMPC H5X  HAL2   0.090000        1.0079           0
   25965 O1   109  DMPC H5Y  HAL2   0.090000        1.0079           0
   25966 O1   109  DMPC C36  CTL2  -0.180000       12.0107           0
   25967 O1   109  DMPC H6X  HAL2   0.090000        1.0079           0
   25968 O1   109  DMPC H6Y  HAL2   0.090000        1.0079           0
   25969 O1   109  DMPC C37  CTL2  -0.180000       12.0107           0
   25970 O1   109  DMPC H7X  HAL2   0.090000        1.0079           0
   25971 O1   109  DMPC H7Y  HAL2   0.090000        1.0079           0
   25972 O1   109  DMPC C38  CTL2  -0.180000       12.0107           0
   25973 O1   109  DMPC H8X  HAL2   0.090000        1.0079           0
   25974 O1   109  DMPC H8Y  HAL2   0.090000        1.0079           0
   25975 O1   109  DMPC C39  CTL2  -0.180000       12.0107           0
   25976 O1   109  DMPC H9X  HAL2   0.090000        1.0079           0
   25977 O1   109  DMPC H9Y  HAL2   0.090000        1.0079           0
   25978 O1   109  DMPC C310 CTL2  -0.180000       12.0107           0
   25979 O1   109  DMPC H10X HAL2   0.090000        1.0079           0
   25980 O1   109  DMPC H10Y HAL2   0.090000        1.0079           0
   25981 O1   109  DMPC C311 CTL2  -0.180000       12.0107           0
   25982 O1   109  DMPC H11X HAL2   0.090000        1.0079           0
   25983 O1   109  DMPC H11Y HAL2   0.090000        1.0079           0
   25984 O1   109  DMPC C312 CTL2  -0.180000       12.0107           0
   25985 O1   109  DMPC H12X HAL2   0.090000        1.0079           0
   25986 O1   109  DMPC H12Y HAL2   0.090000        1.0079           0
   25987 O1   109  DMPC C313 CTL2  -0.180000       12.0107           0
   25988 O1   109  DMPC H13X HAL2   0.090000        1.0079           0
   25989 O1   109  DMPC H13Y HAL2   0.090000        1.0079           0
   25990 O1   109  DMPC C314 CTL3  -0.270000       12.0107           0
   25991 O1   109  DMPC H14X HAL3   0.090000        1.0079           0
   25992 O1   109  DMPC H14Y HAL3   0.090000        1.0079           0
   25993 O1   109  DMPC H14Z HAL3   0.090000        1.0079           0
   25994 O1   110  DMPC N    NTL   -0.600000       14.0067           0
   25995 O1   110  DMPC C13  CTL5  -0.350000       12.0107           0
   25996 O1   110  DMPC H13A HL     0.250000        1.0079           0
   25997 O1   110  DMPC H13B HL     0.250000        1.0079           0
   25998 O1   110  DMPC H13C HL     0.250000        1.0079           0
   25999 O1   110  DMPC C14  CTL5  -0.350000       12.0107           0
   26000 O1   110  DMPC H14A HL     0.250000        1.0079           0
   26001 O1   110  DMPC H14B HL     0.250000        1.0079           0
   26002 O1   110  DMPC H14C HL     0.250000        1.0079           0
   26003 O1   110  DMPC C15  CTL5  -0.350000       12.0107           0
   26004 O1   110  DMPC H15A HL     0.250000        1.0079           0
   26005 O1   110  DMPC H15B HL     0.250000        1.0079           0
   26006 O1   110  DMPC H15C HL     0.250000        1.0079           0
   26007 O1   110  DMPC C12  CTL2  -0.100000       12.0107           0
   26008 O1   110  DMPC H12A HL     0.250000        1.0079           0
   26009 O1   110  DMPC H12B HL     0.250000        1.0079           0
   26010 O1   110  DMPC C11  CTL2  -0.080000       12.0107           0
   26011 O1   110  DMPC H11A HAL2   0.090000        1.0079           0
   26012 O1   110  DMPC H11B HAL2   0.090000        1.0079           0
   26013 O1   110  DMPC P    PL     1.500000       30.9738           0
   26014 O1   110  DMPC O13  O2L   -0.780000       15.9994           0
   26015 O1   110  DMPC O14  O2L   -0.780000       15.9994           0
   26016 O1   110  DMPC O11  OSLP  -0.570000       15.9994           0
   26017 O1   110  DMPC O12  OSLP  -0.570000       15.9994           0
   26018 O1   110  DMPC C1   CTL2  -0.080000       12.0107           0
   26019 O1   110  DMPC HA   HAL2   0.090000        1.0079           0
   26020 O1   110  DMPC HB   HAL2   0.090000        1.0079           0
   26021 O1   110  DMPC C2   CTL1   0.170000       12.0107           0
   26022 O1   110  DMPC HS   HAL1   0.090000        1.0079           0
   26023 O1   110  DMPC O21  OSL   -0.490000       15.9994           0
   26024 O1   110  DMPC C21  CL     0.900000       12.0107           0
   26025 O1   110  DMPC O22  OBL   -0.630000       15.9994           0
   26026 O1   110  DMPC C22  CTL2  -0.220000       12.0107           0
   26027 O1   110  DMPC H2R  HAL2   0.090000        1.0079           0
   26028 O1   110  DMPC H2S  HAL2   0.090000        1.0079           0
   26029 O1   110  DMPC C3   CTL2   0.080000       12.0107           0
   26030 O1   110  DMPC HX   HAL2   0.090000        1.0079           0
   26031 O1   110  DMPC HY   HAL2   0.090000        1.0079           0
   26032 O1   110  DMPC O31  OSL   -0.490000       15.9994           0
   26033 O1   110  DMPC C31  CL     0.900000       12.0107           0
   26034 O1   110  DMPC O32  OBL   -0.630000       15.9994           0
   26035 O1   110  DMPC C32  CTL2  -0.220000       12.0107           0
   26036 O1   110  DMPC H2X  HAL2   0.090000        1.0079           0
   26037 O1   110  DMPC H2Y  HAL2   0.090000        1.0079           0
   26038 O1   110  DMPC C23  CTL2  -0.180000       12.0107           0
   26039 O1   110  DMPC H3R  HAL2   0.090000        1.0079           0
   26040 O1   110  DMPC H3S  HAL2   0.090000        1.0079           0
   26041 O1   110  DMPC C24  CTL2  -0.180000       12.0107           0
   26042 O1   110  DMPC H4R  HAL2   0.090000        1.0079           0
   26043 O1   110  DMPC H4S  HAL2   0.090000        1.0079           0
   26044 O1   110  DMPC C25  CTL2  -0.180000       12.0107           0
   26045 O1   110  DMPC H5R  HAL2   0.090000        1.0079           0
   26046 O1   110  DMPC H5S  HAL2   0.090000        1.0079           0
   26047 O1   110  DMPC C26  CTL2  -0.180000       12.0107           0
   26048 O1   110  DMPC H6R  HAL2   0.090000        1.0079           0
   26049 O1   110  DMPC H6S  HAL2   0.090000        1.0079           0
   26050 O1   110  DMPC C27  CTL2  -0.180000       12.0107           0
   26051 O1   110  DMPC H7R  HAL2   0.090000        1.0079           0
   26052 O1   110  DMPC H7S  HAL2   0.090000        1.0079           0
   26053 O1   110  DMPC C28  CTL2  -0.180000       12.0107           0
   26054 O1   110  DMPC H8R  HAL2   0.090000        1.0079           0
   26055 O1   110  DMPC H8S  HAL2   0.090000        1.0079           0
   26056 O1   110  DMPC C29  CTL2  -0.180000       12.0107           0
   26057 O1   110  DMPC H9R  HAL2   0.090000        1.0079           0
   26058 O1   110  DMPC H9S  HAL2   0.090000        1.0079           0
   26059 O1   110  DMPC C210 CTL2  -0.180000       12.0107           0
   26060 O1   110  DMPC H10R HAL2   0.090000        1.0079           0
   26061 O1   110  DMPC H10S HAL2   0.090000        1.0079           0
   26062 O1   110  DMPC C211 CTL2  -0.180000       12.0107           0
   26063 O1   110  DMPC H11R HAL2   0.090000        1.0079           0
   26064 O1   110  DMPC H11S HAL2   0.090000        1.0079           0
   26065 O1   110  DMPC C212 CTL2  -0.180000       12.0107           0
   26066 O1   110  DMPC H12R HAL2   0.090000        1.0079           0
   26067 O1   110  DMPC H12S HAL2   0.090000        1.0079           0
   26068 O1   110  DMPC C213 CTL2  -0.180000       12.0107           0
   26069 O1   110  DMPC H13R HAL2   0.090000        1.0079           0
   26070 O1   110  DMPC H13S HAL2   0.090000        1.0079           0
   26071 O1   110  DMPC C214 CTL3  -0.270000       12.0107           0
   26072 O1   110  DMPC H14R HAL3   0.090000        1.0079           0
   26073 O1   110  DMPC H14S HAL3   0.090000        1.0079           0
   26074 O1   110  DMPC H14T HAL3   0.090000        1.0079           0
   26075 O1   110  DMPC C33  CTL2  -0.180000       12.0107           0
   26076 O1   110  DMPC H3X  HAL2   0.090000        1.0079           0
   26077 O1   110  DMPC H3Y  HAL2   0.090000        1.0079           0
   26078 O1   110  DMPC C34  CTL2  -0.180000       12.0107           0
   26079 O1   110  DMPC H4X  HAL2   0.090000        1.0079           0
   26080 O1   110  DMPC H4Y  HAL2   0.090000        1.0079           0
   26081 O1   110  DMPC C35  CTL2  -0.180000       12.0107           0
   26082 O1   110  DMPC H5X  HAL2   0.090000        1.0079           0
   26083 O1   110  DMPC H5Y  HAL2   0.090000        1.0079           0
   26084 O1   110  DMPC C36  CTL2  -0.180000       12.0107           0
   26085 O1   110  DMPC H6X  HAL2   0.090000        1.0079           0
   26086 O1   110  DMPC H6Y  HAL2   0.090000        1.0079           0
   26087 O1   110  DMPC C37  CTL2  -0.180000       12.0107           0
   26088 O1   110  DMPC H7X  HAL2   0.090000        1.0079           0
   26089 O1   110  DMPC H7Y  HAL2   0.090000        1.0079           0
   26090 O1   110  DMPC C38  CTL2  -0.180000       12.0107           0
   26091 O1   110  DMPC H8X  HAL2   0.090000        1.0079           0
   26092 O1   110  DMPC H8Y  HAL2   0.090000        1.0079           0
   26093 O1   110  DMPC C39  CTL2  -0.180000       12.0107           0
   26094 O1   110  DMPC H9X  HAL2   0.090000        1.0079           0
   26095 O1   110  DMPC H9Y  HAL2   0.090000        1.0079           0
   26096 O1   110  DMPC C310 CTL2  -0.180000       12.0107           0
   26097 O1   110  DMPC H10X HAL2   0.090000        1.0079           0
   26098 O1   110  DMPC H10Y HAL2   0.090000        1.0079           0
   26099 O1   110  DMPC C311 CTL2  -0.180000       12.0107           0
   26100 O1   110  DMPC H11X HAL2   0.090000        1.0079           0
   26101 O1   110  DMPC H11Y HAL2   0.090000        1.0079           0
   26102 O1   110  DMPC C312 CTL2  -0.180000       12.0107           0
   26103 O1   110  DMPC H12X HAL2   0.090000        1.0079           0
   26104 O1   110  DMPC H12Y HAL2   0.090000        1.0079           0
   26105 O1   110  DMPC C313 CTL2  -0.180000       12.0107           0
   26106 O1   110  DMPC H13X HAL2   0.090000        1.0079           0
   26107 O1   110  DMPC H13Y HAL2   0.090000        1.0079           0
   26108 O1   110  DMPC C314 CTL3  -0.270000       12.0107           0
   26109 O1   110  DMPC H14X HAL3   0.090000        1.0079           0
   26110 O1   110  DMPC H14Y HAL3   0.090000        1.0079           0
   26111 O1   110  DMPC H14Z HAL3   0.090000        1.0079           0
   26112 O1   111  DMPC N    NTL   -0.600000       14.0067           0
   26113 O1   111  DMPC C13  CTL5  -0.350000       12.0107           0
   26114 O1   111  DMPC H13A HL     0.250000        1.0079           0
   26115 O1   111  DMPC H13B HL     0.250000        1.0079           0
   26116 O1   111  DMPC H13C HL     0.250000        1.0079           0
   26117 O1   111  DMPC C14  CTL5  -0.350000       12.0107           0
   26118 O1   111  DMPC H14A HL     0.250000        1.0079           0
   26119 O1   111  DMPC H14B HL     0.250000        1.0079           0
   26120 O1   111  DMPC H14C HL     0.250000        1.0079           0
   26121 O1   111  DMPC C15  CTL5  -0.350000       12.0107           0
   26122 O1   111  DMPC H15A HL     0.250000        1.0079           0
   26123 O1   111  DMPC H15B HL     0.250000        1.0079           0
   26124 O1   111  DMPC H15C HL     0.250000        1.0079           0
   26125 O1   111  DMPC C12  CTL2  -0.100000       12.0107           0
   26126 O1   111  DMPC H12A HL     0.250000        1.0079           0
   26127 O1   111  DMPC H12B HL     0.250000        1.0079           0
   26128 O1   111  DMPC C11  CTL2  -0.080000       12.0107           0
   26129 O1   111  DMPC H11A HAL2   0.090000        1.0079           0
   26130 O1   111  DMPC H11B HAL2   0.090000        1.0079           0
   26131 O1   111  DMPC P    PL     1.500000       30.9738           0
   26132 O1   111  DMPC O13  O2L   -0.780000       15.9994           0
   26133 O1   111  DMPC O14  O2L   -0.780000       15.9994           0
   26134 O1   111  DMPC O11  OSLP  -0.570000       15.9994           0
   26135 O1   111  DMPC O12  OSLP  -0.570000       15.9994           0
   26136 O1   111  DMPC C1   CTL2  -0.080000       12.0107           0
   26137 O1   111  DMPC HA   HAL2   0.090000        1.0079           0
   26138 O1   111  DMPC HB   HAL2   0.090000        1.0079           0
   26139 O1   111  DMPC C2   CTL1   0.170000       12.0107           0
   26140 O1   111  DMPC HS   HAL1   0.090000        1.0079           0
   26141 O1   111  DMPC O21  OSL   -0.490000       15.9994           0
   26142 O1   111  DMPC C21  CL     0.900000       12.0107           0
   26143 O1   111  DMPC O22  OBL   -0.630000       15.9994           0
   26144 O1   111  DMPC C22  CTL2  -0.220000       12.0107           0
   26145 O1   111  DMPC H2R  HAL2   0.090000        1.0079           0
   26146 O1   111  DMPC H2S  HAL2   0.090000        1.0079           0
   26147 O1   111  DMPC C3   CTL2   0.080000       12.0107           0
   26148 O1   111  DMPC HX   HAL2   0.090000        1.0079           0
   26149 O1   111  DMPC HY   HAL2   0.090000        1.0079           0
   26150 O1   111  DMPC O31  OSL   -0.490000       15.9994           0
   26151 O1   111  DMPC C31  CL     0.900000       12.0107           0
   26152 O1   111  DMPC O32  OBL   -0.630000       15.9994           0
   26153 O1   111  DMPC C32  CTL2  -0.220000       12.0107           0
   26154 O1   111  DMPC H2X  HAL2   0.090000        1.0079           0
   26155 O1   111  DMPC H2Y  HAL2   0.090000        1.0079           0
   26156 O1   111  DMPC C23  CTL2  -0.180000       12.0107           0
   26157 O1   111  DMPC H3R  HAL2   0.090000        1.0079           0
   26158 O1   111  DMPC H3S  HAL2   0.090000        1.0079           0
   26159 O1   111  DMPC C24  CTL2  -0.180000       12.0107           0
   26160 O1   111  DMPC H4R  HAL2   0.090000        1.0079           0
   26161 O1   111  DMPC H4S  HAL2   0.090000        1.0079           0
   26162 O1   111  DMPC C25  CTL2  -0.180000       12.0107           0
   26163 O1   111  DMPC H5R  HAL2   0.090000        1.0079           0
   26164 O1   111  DMPC H5S  HAL2   0.090000        1.0079           0
   26165 O1   111  DMPC C26  CTL2  -0.180000       12.0107           0
   26166 O1   111  DMPC H6R  HAL2   0.090000        1.0079           0
   26167 O1   111  DMPC H6S  HAL2   0.090000        1.0079           0
   26168 O1   111  DMPC C27  CTL2  -0.180000       12.0107           0
   26169 O1   111  DMPC H7R  HAL2   0.090000        1.0079           0
   26170 O1   111  DMPC H7S  HAL2   0.090000        1.0079           0
   26171 O1   111  DMPC C28  CTL2  -0.180000       12.0107           0
   26172 O1   111  DMPC H8R  HAL2   0.090000        1.0079           0
   26173 O1   111  DMPC H8S  HAL2   0.090000        1.0079           0
   26174 O1   111  DMPC C29  CTL2  -0.180000       12.0107           0
   26175 O1   111  DMPC H9R  HAL2   0.090000        1.0079           0
   26176 O1   111  DMPC H9S  HAL2   0.090000        1.0079           0
   26177 O1   111  DMPC C210 CTL2  -0.180000       12.0107           0
   26178 O1   111  DMPC H10R HAL2   0.090000        1.0079           0
   26179 O1   111  DMPC H10S HAL2   0.090000        1.0079           0
   26180 O1   111  DMPC C211 CTL2  -0.180000       12.0107           0
   26181 O1   111  DMPC H11R HAL2   0.090000        1.0079           0
   26182 O1   111  DMPC H11S HAL2   0.090000        1.0079           0
   26183 O1   111  DMPC C212 CTL2  -0.180000       12.0107           0
   26184 O1   111  DMPC H12R HAL2   0.090000        1.0079           0
   26185 O1   111  DMPC H12S HAL2   0.090000        1.0079           0
   26186 O1   111  DMPC C213 CTL2  -0.180000       12.0107           0
   26187 O1   111  DMPC H13R HAL2   0.090000        1.0079           0
   26188 O1   111  DMPC H13S HAL2   0.090000        1.0079           0
   26189 O1   111  DMPC C214 CTL3  -0.270000       12.0107           0
   26190 O1   111  DMPC H14R HAL3   0.090000        1.0079           0
   26191 O1   111  DMPC H14S HAL3   0.090000        1.0079           0
   26192 O1   111  DMPC H14T HAL3   0.090000        1.0079           0
   26193 O1   111  DMPC C33  CTL2  -0.180000       12.0107           0
   26194 O1   111  DMPC H3X  HAL2   0.090000        1.0079           0
   26195 O1   111  DMPC H3Y  HAL2   0.090000        1.0079           0
   26196 O1   111  DMPC C34  CTL2  -0.180000       12.0107           0
   26197 O1   111  DMPC H4X  HAL2   0.090000        1.0079           0
   26198 O1   111  DMPC H4Y  HAL2   0.090000        1.0079           0
   26199 O1   111  DMPC C35  CTL2  -0.180000       12.0107           0
   26200 O1   111  DMPC H5X  HAL2   0.090000        1.0079           0
   26201 O1   111  DMPC H5Y  HAL2   0.090000        1.0079           0
   26202 O1   111  DMPC C36  CTL2  -0.180000       12.0107           0
   26203 O1   111  DMPC H6X  HAL2   0.090000        1.0079           0
   26204 O1   111  DMPC H6Y  HAL2   0.090000        1.0079           0
   26205 O1   111  DMPC C37  CTL2  -0.180000       12.0107           0
   26206 O1   111  DMPC H7X  HAL2   0.090000        1.0079           0
   26207 O1   111  DMPC H7Y  HAL2   0.090000        1.0079           0
   26208 O1   111  DMPC C38  CTL2  -0.180000       12.0107           0
   26209 O1   111  DMPC H8X  HAL2   0.090000        1.0079           0
   26210 O1   111  DMPC H8Y  HAL2   0.090000        1.0079           0
   26211 O1   111  DMPC C39  CTL2  -0.180000       12.0107           0
   26212 O1   111  DMPC H9X  HAL2   0.090000        1.0079           0
   26213 O1   111  DMPC H9Y  HAL2   0.090000        1.0079           0
   26214 O1   111  DMPC C310 CTL2  -0.180000       12.0107           0
   26215 O1   111  DMPC H10X HAL2   0.090000        1.0079           0
   26216 O1   111  DMPC H10Y HAL2   0.090000        1.0079           0
   26217 O1   111  DMPC C311 CTL2  -0.180000       12.0107           0
   26218 O1   111  DMPC H11X HAL2   0.090000        1.0079           0
   26219 O1   111  DMPC H11Y HAL2   0.090000        1.0079           0
   26220 O1   111  DMPC C312 CTL2  -0.180000       12.0107           0
   26221 O1   111  DMPC H12X HAL2   0.090000        1.0079           0
   26222 O1   111  DMPC H12Y HAL2   0.090000        1.0079           0
   26223 O1   111  DMPC C313 CTL2  -0.180000       12.0107           0
   26224 O1   111  DMPC H13X HAL2   0.090000        1.0079           0
   26225 O1   111  DMPC H13Y HAL2   0.090000        1.0079           0
   26226 O1   111  DMPC C314 CTL3  -0.270000       12.0107           0
   26227 O1   111  DMPC H14X HAL3   0.090000        1.0079           0
   26228 O1   111  DMPC H14Y HAL3   0.090000        1.0079           0
   26229 O1   111  DMPC H14Z HAL3   0.090000        1.0079           0
   26230 O1   112  DMPC N    NTL   -0.600000       14.0067           0
   26231 O1   112  DMPC C13  CTL5  -0.350000       12.0107           0
   26232 O1   112  DMPC H13A HL     0.250000        1.0079           0
   26233 O1   112  DMPC H13B HL     0.250000        1.0079           0
   26234 O1   112  DMPC H13C HL     0.250000        1.0079           0
   26235 O1   112  DMPC C14  CTL5  -0.350000       12.0107           0
   26236 O1   112  DMPC H14A HL     0.250000        1.0079           0
   26237 O1   112  DMPC H14B HL     0.250000        1.0079           0
   26238 O1   112  DMPC H14C HL     0.250000        1.0079           0
   26239 O1   112  DMPC C15  CTL5  -0.350000       12.0107           0
   26240 O1   112  DMPC H15A HL     0.250000        1.0079           0
   26241 O1   112  DMPC H15B HL     0.250000        1.0079           0
   26242 O1   112  DMPC H15C HL     0.250000        1.0079           0
   26243 O1   112  DMPC C12  CTL2  -0.100000       12.0107           0
   26244 O1   112  DMPC H12A HL     0.250000        1.0079           0
   26245 O1   112  DMPC H12B HL     0.250000        1.0079           0
   26246 O1   112  DMPC C11  CTL2  -0.080000       12.0107           0
   26247 O1   112  DMPC H11A HAL2   0.090000        1.0079           0
   26248 O1   112  DMPC H11B HAL2   0.090000        1.0079           0
   26249 O1   112  DMPC P    PL     1.500000       30.9738           0
   26250 O1   112  DMPC O13  O2L   -0.780000       15.9994           0
   26251 O1   112  DMPC O14  O2L   -0.780000       15.9994           0
   26252 O1   112  DMPC O11  OSLP  -0.570000       15.9994           0
   26253 O1   112  DMPC O12  OSLP  -0.570000       15.9994           0
   26254 O1   112  DMPC C1   CTL2  -0.080000       12.0107           0
   26255 O1   112  DMPC HA   HAL2   0.090000        1.0079           0
   26256 O1   112  DMPC HB   HAL2   0.090000        1.0079           0
   26257 O1   112  DMPC C2   CTL1   0.170000       12.0107           0
   26258 O1   112  DMPC HS   HAL1   0.090000        1.0079           0
   26259 O1   112  DMPC O21  OSL   -0.490000       15.9994           0
   26260 O1   112  DMPC C21  CL     0.900000       12.0107           0
   26261 O1   112  DMPC O22  OBL   -0.630000       15.9994           0
   26262 O1   112  DMPC C22  CTL2  -0.220000       12.0107           0
   26263 O1   112  DMPC H2R  HAL2   0.090000        1.0079           0
   26264 O1   112  DMPC H2S  HAL2   0.090000        1.0079           0
   26265 O1   112  DMPC C3   CTL2   0.080000       12.0107           0
   26266 O1   112  DMPC HX   HAL2   0.090000        1.0079           0
   26267 O1   112  DMPC HY   HAL2   0.090000        1.0079           0
   26268 O1   112  DMPC O31  OSL   -0.490000       15.9994           0
   26269 O1   112  DMPC C31  CL     0.900000       12.0107           0
   26270 O1   112  DMPC O32  OBL   -0.630000       15.9994           0
   26271 O1   112  DMPC C32  CTL2  -0.220000       12.0107           0
   26272 O1   112  DMPC H2X  HAL2   0.090000        1.0079           0
   26273 O1   112  DMPC H2Y  HAL2   0.090000        1.0079           0
   26274 O1   112  DMPC C23  CTL2  -0.180000       12.0107           0
   26275 O1   112  DMPC H3R  HAL2   0.090000        1.0079           0
   26276 O1   112  DMPC H3S  HAL2   0.090000        1.0079           0
   26277 O1   112  DMPC C24  CTL2  -0.180000       12.0107           0
   26278 O1   112  DMPC H4R  HAL2   0.090000        1.0079           0
   26279 O1   112  DMPC H4S  HAL2   0.090000        1.0079           0
   26280 O1   112  DMPC C25  CTL2  -0.180000       12.0107           0
   26281 O1   112  DMPC H5R  HAL2   0.090000        1.0079           0
   26282 O1   112  DMPC H5S  HAL2   0.090000        1.0079           0
   26283 O1   112  DMPC C26  CTL2  -0.180000       12.0107           0
   26284 O1   112  DMPC H6R  HAL2   0.090000        1.0079           0
   26285 O1   112  DMPC H6S  HAL2   0.090000        1.0079           0
   26286 O1   112  DMPC C27  CTL2  -0.180000       12.0107           0
   26287 O1   112  DMPC H7R  HAL2   0.090000        1.0079           0
   26288 O1   112  DMPC H7S  HAL2   0.090000        1.0079           0
   26289 O1   112  DMPC C28  CTL2  -0.180000       12.0107           0
   26290 O1   112  DMPC H8R  HAL2   0.090000        1.0079           0
   26291 O1   112  DMPC H8S  HAL2   0.090000        1.0079           0
   26292 O1   112  DMPC C29  CTL2  -0.180000       12.0107           0
   26293 O1   112  DMPC H9R  HAL2   0.090000        1.0079           0
   26294 O1   112  DMPC H9S  HAL2   0.090000        1.0079           0
   26295 O1   112  DMPC C210 CTL2  -0.180000       12.0107           0
   26296 O1   112  DMPC H10R HAL2   0.090000        1.0079           0
   26297 O1   112  DMPC H10S HAL2   0.090000        1.0079           0
   26298 O1   112  DMPC C211 CTL2  -0.180000       12.0107           0
   26299 O1   112  DMPC H11R HAL2   0.090000        1.0079           0
   26300 O1   112  DMPC H11S HAL2   0.090000        1.0079           0
   26301 O1   112  DMPC C212 CTL2  -0.180000       12.0107           0
   26302 O1   112  DMPC H12R HAL2   0.090000        1.0079           0
   26303 O1   112  DMPC H12S HAL2   0.090000        1.0079           0
   26304 O1   112  DMPC C213 CTL2  -0.180000       12.0107           0
   26305 O1   112  DMPC H13R HAL2   0.090000        1.0079           0
   26306 O1   112  DMPC H13S HAL2   0.090000        1.0079           0
   26307 O1   112  DMPC C214 CTL3  -0.270000       12.0107           0
   26308 O1   112  DMPC H14R HAL3   0.090000        1.0079           0
   26309 O1   112  DMPC H14S HAL3   0.090000        1.0079           0
   26310 O1   112  DMPC H14T HAL3   0.090000        1.0079           0
   26311 O1   112  DMPC C33  CTL2  -0.180000       12.0107           0
   26312 O1   112  DMPC H3X  HAL2   0.090000        1.0079           0
   26313 O1   112  DMPC H3Y  HAL2   0.090000        1.0079           0
   26314 O1   112  DMPC C34  CTL2  -0.180000       12.0107           0
   26315 O1   112  DMPC H4X  HAL2   0.090000        1.0079           0
   26316 O1   112  DMPC H4Y  HAL2   0.090000        1.0079           0
   26317 O1   112  DMPC C35  CTL2  -0.180000       12.0107           0
   26318 O1   112  DMPC H5X  HAL2   0.090000        1.0079           0
   26319 O1   112  DMPC H5Y  HAL2   0.090000        1.0079           0
   26320 O1   112  DMPC C36  CTL2  -0.180000       12.0107           0
   26321 O1   112  DMPC H6X  HAL2   0.090000        1.0079           0
   26322 O1   112  DMPC H6Y  HAL2   0.090000        1.0079           0
   26323 O1   112  DMPC C37  CTL2  -0.180000       12.0107           0
   26324 O1   112  DMPC H7X  HAL2   0.090000        1.0079           0
   26325 O1   112  DMPC H7Y  HAL2   0.090000        1.0079           0
   26326 O1   112  DMPC C38  CTL2  -0.180000       12.0107           0
   26327 O1   112  DMPC H8X  HAL2   0.090000        1.0079           0
   26328 O1   112  DMPC H8Y  HAL2   0.090000        1.0079           0
   26329 O1   112  DMPC C39  CTL2  -0.180000       12.0107           0
   26330 O1   112  DMPC H9X  HAL2   0.090000        1.0079           0
   26331 O1   112  DMPC H9Y  HAL2   0.090000        1.0079           0
   26332 O1   112  DMPC C310 CTL2  -0.180000       12.0107           0
   26333 O1   112  DMPC H10X HAL2   0.090000        1.0079           0
   26334 O1   112  DMPC H10Y HAL2   0.090000        1.0079           0
   26335 O1   112  DMPC C311 CTL2  -0.180000       12.0107           0
   26336 O1   112  DMPC H11X HAL2   0.090000        1.0079           0
   26337 O1   112  DMPC H11Y HAL2   0.090000        1.0079           0
   26338 O1   112  DMPC C312 CTL2  -0.180000       12.0107           0
   26339 O1   112  DMPC H12X HAL2   0.090000        1.0079           0
   26340 O1   112  DMPC H12Y HAL2   0.090000        1.0079           0
   26341 O1   112  DMPC C313 CTL2  -0.180000       12.0107           0
   26342 O1   112  DMPC H13X HAL2   0.090000        1.0079           0
   26343 O1   112  DMPC H13Y HAL2   0.090000        1.0079           0
   26344 O1   112  DMPC C314 CTL3  -0.270000       12.0107           0
   26345 O1   112  DMPC H14X HAL3   0.090000        1.0079           0
   26346 O1   112  DMPC H14Y HAL3   0.090000        1.0079           0
   26347 O1   112  DMPC H14Z HAL3   0.090000        1.0079           0
   26348 O1   113  DMPC N    NTL   -0.600000       14.0067           0
   26349 O1   113  DMPC C13  CTL5  -0.350000       12.0107           0
   26350 O1   113  DMPC H13A HL     0.250000        1.0079           0
   26351 O1   113  DMPC H13B HL     0.250000        1.0079           0
   26352 O1   113  DMPC H13C HL     0.250000        1.0079           0
   26353 O1   113  DMPC C14  CTL5  -0.350000       12.0107           0
   26354 O1   113  DMPC H14A HL     0.250000        1.0079           0
   26355 O1   113  DMPC H14B HL     0.250000        1.0079           0
   26356 O1   113  DMPC H14C HL     0.250000        1.0079           0
   26357 O1   113  DMPC C15  CTL5  -0.350000       12.0107           0
   26358 O1   113  DMPC H15A HL     0.250000        1.0079           0
   26359 O1   113  DMPC H15B HL     0.250000        1.0079           0
   26360 O1   113  DMPC H15C HL     0.250000        1.0079           0
   26361 O1   113  DMPC C12  CTL2  -0.100000       12.0107           0
   26362 O1   113  DMPC H12A HL     0.250000        1.0079           0
   26363 O1   113  DMPC H12B HL     0.250000        1.0079           0
   26364 O1   113  DMPC C11  CTL2  -0.080000       12.0107           0
   26365 O1   113  DMPC H11A HAL2   0.090000        1.0079           0
   26366 O1   113  DMPC H11B HAL2   0.090000        1.0079           0
   26367 O1   113  DMPC P    PL     1.500000       30.9738           0
   26368 O1   113  DMPC O13  O2L   -0.780000       15.9994           0
   26369 O1   113  DMPC O14  O2L   -0.780000       15.9994           0
   26370 O1   113  DMPC O11  OSLP  -0.570000       15.9994           0
   26371 O1   113  DMPC O12  OSLP  -0.570000       15.9994           0
   26372 O1   113  DMPC C1   CTL2  -0.080000       12.0107           0
   26373 O1   113  DMPC HA   HAL2   0.090000        1.0079           0
   26374 O1   113  DMPC HB   HAL2   0.090000        1.0079           0
   26375 O1   113  DMPC C2   CTL1   0.170000       12.0107           0
   26376 O1   113  DMPC HS   HAL1   0.090000        1.0079           0
   26377 O1   113  DMPC O21  OSL   -0.490000       15.9994           0
   26378 O1   113  DMPC C21  CL     0.900000       12.0107           0
   26379 O1   113  DMPC O22  OBL   -0.630000       15.9994           0
   26380 O1   113  DMPC C22  CTL2  -0.220000       12.0107           0
   26381 O1   113  DMPC H2R  HAL2   0.090000        1.0079           0
   26382 O1   113  DMPC H2S  HAL2   0.090000        1.0079           0
   26383 O1   113  DMPC C3   CTL2   0.080000       12.0107           0
   26384 O1   113  DMPC HX   HAL2   0.090000        1.0079           0
   26385 O1   113  DMPC HY   HAL2   0.090000        1.0079           0
   26386 O1   113  DMPC O31  OSL   -0.490000       15.9994           0
   26387 O1   113  DMPC C31  CL     0.900000       12.0107           0
   26388 O1   113  DMPC O32  OBL   -0.630000       15.9994           0
   26389 O1   113  DMPC C32  CTL2  -0.220000       12.0107           0
   26390 O1   113  DMPC H2X  HAL2   0.090000        1.0079           0
   26391 O1   113  DMPC H2Y  HAL2   0.090000        1.0079           0
   26392 O1   113  DMPC C23  CTL2  -0.180000       12.0107           0
   26393 O1   113  DMPC H3R  HAL2   0.090000        1.0079           0
   26394 O1   113  DMPC H3S  HAL2   0.090000        1.0079           0
   26395 O1   113  DMPC C24  CTL2  -0.180000       12.0107           0
   26396 O1   113  DMPC H4R  HAL2   0.090000        1.0079           0
   26397 O1   113  DMPC H4S  HAL2   0.090000        1.0079           0
   26398 O1   113  DMPC C25  CTL2  -0.180000       12.0107           0
   26399 O1   113  DMPC H5R  HAL2   0.090000        1.0079           0
   26400 O1   113  DMPC H5S  HAL2   0.090000        1.0079           0
   26401 O1   113  DMPC C26  CTL2  -0.180000       12.0107           0
   26402 O1   113  DMPC H6R  HAL2   0.090000        1.0079           0
   26403 O1   113  DMPC H6S  HAL2   0.090000        1.0079           0
   26404 O1   113  DMPC C27  CTL2  -0.180000       12.0107           0
   26405 O1   113  DMPC H7R  HAL2   0.090000        1.0079           0
   26406 O1   113  DMPC H7S  HAL2   0.090000        1.0079           0
   26407 O1   113  DMPC C28  CTL2  -0.180000       12.0107           0
   26408 O1   113  DMPC H8R  HAL2   0.090000        1.0079           0
   26409 O1   113  DMPC H8S  HAL2   0.090000        1.0079           0
   26410 O1   113  DMPC C29  CTL2  -0.180000       12.0107           0
   26411 O1   113  DMPC H9R  HAL2   0.090000        1.0079           0
   26412 O1   113  DMPC H9S  HAL2   0.090000        1.0079           0
   26413 O1   113  DMPC C210 CTL2  -0.180000       12.0107           0
   26414 O1   113  DMPC H10R HAL2   0.090000        1.0079           0
   26415 O1   113  DMPC H10S HAL2   0.090000        1.0079           0
   26416 O1   113  DMPC C211 CTL2  -0.180000       12.0107           0
   26417 O1   113  DMPC H11R HAL2   0.090000        1.0079           0
   26418 O1   113  DMPC H11S HAL2   0.090000        1.0079           0
   26419 O1   113  DMPC C212 CTL2  -0.180000       12.0107           0
   26420 O1   113  DMPC H12R HAL2   0.090000        1.0079           0
   26421 O1   113  DMPC H12S HAL2   0.090000        1.0079           0
   26422 O1   113  DMPC C213 CTL2  -0.180000       12.0107           0
   26423 O1   113  DMPC H13R HAL2   0.090000        1.0079           0
   26424 O1   113  DMPC H13S HAL2   0.090000        1.0079           0
   26425 O1   113  DMPC C214 CTL3  -0.270000       12.0107           0
   26426 O1   113  DMPC H14R HAL3   0.090000        1.0079           0
   26427 O1   113  DMPC H14S HAL3   0.090000        1.0079           0
   26428 O1   113  DMPC H14T HAL3   0.090000        1.0079           0
   26429 O1   113  DMPC C33  CTL2  -0.180000       12.0107           0
   26430 O1   113  DMPC H3X  HAL2   0.090000        1.0079           0
   26431 O1   113  DMPC H3Y  HAL2   0.090000        1.0079           0
   26432 O1   113  DMPC C34  CTL2  -0.180000       12.0107           0
   26433 O1   113  DMPC H4X  HAL2   0.090000        1.0079           0
   26434 O1   113  DMPC H4Y  HAL2   0.090000        1.0079           0
   26435 O1   113  DMPC C35  CTL2  -0.180000       12.0107           0
   26436 O1   113  DMPC H5X  HAL2   0.090000        1.0079           0
   26437 O1   113  DMPC H5Y  HAL2   0.090000        1.0079           0
   26438 O1   113  DMPC C36  CTL2  -0.180000       12.0107           0
   26439 O1   113  DMPC H6X  HAL2   0.090000        1.0079           0
   26440 O1   113  DMPC H6Y  HAL2   0.090000        1.0079           0
   26441 O1   113  DMPC C37  CTL2  -0.180000       12.0107           0
   26442 O1   113  DMPC H7X  HAL2   0.090000        1.0079           0
   26443 O1   113  DMPC H7Y  HAL2   0.090000        1.0079           0
   26444 O1   113  DMPC C38  CTL2  -0.180000       12.0107           0
   26445 O1   113  DMPC H8X  HAL2   0.090000        1.0079           0
   26446 O1   113  DMPC H8Y  HAL2   0.090000        1.0079           0
   26447 O1   113  DMPC C39  CTL2  -0.180000       12.0107           0
   26448 O1   113  DMPC H9X  HAL2   0.090000        1.0079           0
   26449 O1   113  DMPC H9Y  HAL2   0.090000        1.0079           0
   26450 O1   113  DMPC C310 CTL2  -0.180000       12.0107           0
   26451 O1   113  DMPC H10X HAL2   0.090000        1.0079           0
   26452 O1   113  DMPC H10Y HAL2   0.090000        1.0079           0
   26453 O1   113  DMPC C311 CTL2  -0.180000       12.0107           0
   26454 O1   113  DMPC H11X HAL2   0.090000        1.0079           0
   26455 O1   113  DMPC H11Y HAL2   0.090000        1.0079           0
   26456 O1   113  DMPC C312 CTL2  -0.180000       12.0107           0
   26457 O1   113  DMPC H12X HAL2   0.090000        1.0079           0
   26458 O1   113  DMPC H12Y HAL2   0.090000        1.0079           0
   26459 O1   113  DMPC C313 CTL2  -0.180000       12.0107           0
   26460 O1   113  DMPC H13X HAL2   0.090000        1.0079           0
   26461 O1   113  DMPC H13Y HAL2   0.090000        1.0079           0
   26462 O1   113  DMPC C314 CTL3  -0.270000       12.0107           0
   26463 O1   113  DMPC H14X HAL3   0.090000        1.0079           0
   26464 O1   113  DMPC H14Y HAL3   0.090000        1.0079           0
   26465 O1   113  DMPC H14Z HAL3   0.090000        1.0079           0
   26466 O1   114  DMPC N    NTL   -0.600000       14.0067           0
   26467 O1   114  DMPC C13  CTL5  -0.350000       12.0107           0
   26468 O1   114  DMPC H13A HL     0.250000        1.0079           0
   26469 O1   114  DMPC H13B HL     0.250000        1.0079           0
   26470 O1   114  DMPC H13C HL     0.250000        1.0079           0
   26471 O1   114  DMPC C14  CTL5  -0.350000       12.0107           0
   26472 O1   114  DMPC H14A HL     0.250000        1.0079           0
   26473 O1   114  DMPC H14B HL     0.250000        1.0079           0
   26474 O1   114  DMPC H14C HL     0.250000        1.0079           0
   26475 O1   114  DMPC C15  CTL5  -0.350000       12.0107           0
   26476 O1   114  DMPC H15A HL     0.250000        1.0079           0
   26477 O1   114  DMPC H15B HL     0.250000        1.0079           0
   26478 O1   114  DMPC H15C HL     0.250000        1.0079           0
   26479 O1   114  DMPC C12  CTL2  -0.100000       12.0107           0
   26480 O1   114  DMPC H12A HL     0.250000        1.0079           0
   26481 O1   114  DMPC H12B HL     0.250000        1.0079           0
   26482 O1   114  DMPC C11  CTL2  -0.080000       12.0107           0
   26483 O1   114  DMPC H11A HAL2   0.090000        1.0079           0
   26484 O1   114  DMPC H11B HAL2   0.090000        1.0079           0
   26485 O1   114  DMPC P    PL     1.500000       30.9738           0
   26486 O1   114  DMPC O13  O2L   -0.780000       15.9994           0
   26487 O1   114  DMPC O14  O2L   -0.780000       15.9994           0
   26488 O1   114  DMPC O11  OSLP  -0.570000       15.9994           0
   26489 O1   114  DMPC O12  OSLP  -0.570000       15.9994           0
   26490 O1   114  DMPC C1   CTL2  -0.080000       12.0107           0
   26491 O1   114  DMPC HA   HAL2   0.090000        1.0079           0
   26492 O1   114  DMPC HB   HAL2   0.090000        1.0079           0
   26493 O1   114  DMPC C2   CTL1   0.170000       12.0107           0
   26494 O1   114  DMPC HS   HAL1   0.090000        1.0079           0
   26495 O1   114  DMPC O21  OSL   -0.490000       15.9994           0
   26496 O1   114  DMPC C21  CL     0.900000       12.0107           0
   26497 O1   114  DMPC O22  OBL   -0.630000       15.9994           0
   26498 O1   114  DMPC C22  CTL2  -0.220000       12.0107           0
   26499 O1   114  DMPC H2R  HAL2   0.090000        1.0079           0
   26500 O1   114  DMPC H2S  HAL2   0.090000        1.0079           0
   26501 O1   114  DMPC C3   CTL2   0.080000       12.0107           0
   26502 O1   114  DMPC HX   HAL2   0.090000        1.0079           0
   26503 O1   114  DMPC HY   HAL2   0.090000        1.0079           0
   26504 O1   114  DMPC O31  OSL   -0.490000       15.9994           0
   26505 O1   114  DMPC C31  CL     0.900000       12.0107           0
   26506 O1   114  DMPC O32  OBL   -0.630000       15.9994           0
   26507 O1   114  DMPC C32  CTL2  -0.220000       12.0107           0
   26508 O1   114  DMPC H2X  HAL2   0.090000        1.0079           0
   26509 O1   114  DMPC H2Y  HAL2   0.090000        1.0079           0
   26510 O1   114  DMPC C23  CTL2  -0.180000       12.0107           0
   26511 O1   114  DMPC H3R  HAL2   0.090000        1.0079           0
   26512 O1   114  DMPC H3S  HAL2   0.090000        1.0079           0
   26513 O1   114  DMPC C24  CTL2  -0.180000       12.0107           0
   26514 O1   114  DMPC H4R  HAL2   0.090000        1.0079           0
   26515 O1   114  DMPC H4S  HAL2   0.090000        1.0079           0
   26516 O1   114  DMPC C25  CTL2  -0.180000       12.0107           0
   26517 O1   114  DMPC H5R  HAL2   0.090000        1.0079           0
   26518 O1   114  DMPC H5S  HAL2   0.090000        1.0079           0
   26519 O1   114  DMPC C26  CTL2  -0.180000       12.0107           0
   26520 O1   114  DMPC H6R  HAL2   0.090000        1.0079           0
   26521 O1   114  DMPC H6S  HAL2   0.090000        1.0079           0
   26522 O1   114  DMPC C27  CTL2  -0.180000       12.0107           0
   26523 O1   114  DMPC H7R  HAL2   0.090000        1.0079           0
   26524 O1   114  DMPC H7S  HAL2   0.090000        1.0079           0
   26525 O1   114  DMPC C28  CTL2  -0.180000       12.0107           0
   26526 O1   114  DMPC H8R  HAL2   0.090000        1.0079           0
   26527 O1   114  DMPC H8S  HAL2   0.090000        1.0079           0
   26528 O1   114  DMPC C29  CTL2  -0.180000       12.0107           0
   26529 O1   114  DMPC H9R  HAL2   0.090000        1.0079           0
   26530 O1   114  DMPC H9S  HAL2   0.090000        1.0079           0
   26531 O1   114  DMPC C210 CTL2  -0.180000       12.0107           0
   26532 O1   114  DMPC H10R HAL2   0.090000        1.0079           0
   26533 O1   114  DMPC H10S HAL2   0.090000        1.0079           0
   26534 O1   114  DMPC C211 CTL2  -0.180000       12.0107           0
   26535 O1   114  DMPC H11R HAL2   0.090000        1.0079           0
   26536 O1   114  DMPC H11S HAL2   0.090000        1.0079           0
   26537 O1   114  DMPC C212 CTL2  -0.180000       12.0107           0
   26538 O1   114  DMPC H12R HAL2   0.090000        1.0079           0
   26539 O1   114  DMPC H12S HAL2   0.090000        1.0079           0
   26540 O1   114  DMPC C213 CTL2  -0.180000       12.0107           0
   26541 O1   114  DMPC H13R HAL2   0.090000        1.0079           0
   26542 O1   114  DMPC H13S HAL2   0.090000        1.0079           0
   26543 O1   114  DMPC C214 CTL3  -0.270000       12.0107           0
   26544 O1   114  DMPC H14R HAL3   0.090000        1.0079           0
   26545 O1   114  DMPC H14S HAL3   0.090000        1.0079           0
   26546 O1   114  DMPC H14T HAL3   0.090000        1.0079           0
   26547 O1   114  DMPC C33  CTL2  -0.180000       12.0107           0
   26548 O1   114  DMPC H3X  HAL2   0.090000        1.0079           0
   26549 O1   114  DMPC H3Y  HAL2   0.090000        1.0079           0
   26550 O1   114  DMPC C34  CTL2  -0.180000       12.0107           0
   26551 O1   114  DMPC H4X  HAL2   0.090000        1.0079           0
   26552 O1   114  DMPC H4Y  HAL2   0.090000        1.0079           0
   26553 O1   114  DMPC C35  CTL2  -0.180000       12.0107           0
   26554 O1   114  DMPC H5X  HAL2   0.090000        1.0079           0
   26555 O1   114  DMPC H5Y  HAL2   0.090000        1.0079           0
   26556 O1   114  DMPC C36  CTL2  -0.180000       12.0107           0
   26557 O1   114  DMPC H6X  HAL2   0.090000        1.0079           0
   26558 O1   114  DMPC H6Y  HAL2   0.090000        1.0079           0
   26559 O1   114  DMPC C37  CTL2  -0.180000       12.0107           0
   26560 O1   114  DMPC H7X  HAL2   0.090000        1.0079           0
   26561 O1   114  DMPC H7Y  HAL2   0.090000        1.0079           0
   26562 O1   114  DMPC C38  CTL2  -0.180000       12.0107           0
   26563 O1   114  DMPC H8X  HAL2   0.090000        1.0079           0
   26564 O1   114  DMPC H8Y  HAL2   0.090000        1.0079           0
   26565 O1   114  DMPC C39  CTL2  -0.180000       12.0107           0
   26566 O1   114  DMPC H9X  HAL2   0.090000        1.0079           0
   26567 O1   114  DMPC H9Y  HAL2   0.090000        1.0079           0
   26568 O1   114  DMPC C310 CTL2  -0.180000       12.0107           0
   26569 O1   114  DMPC H10X HAL2   0.090000        1.0079           0
   26570 O1   114  DMPC H10Y HAL2   0.090000        1.0079           0
   26571 O1   114  DMPC C311 CTL2  -0.180000       12.0107           0
   26572 O1   114  DMPC H11X HAL2   0.090000        1.0079           0
   26573 O1   114  DMPC H11Y HAL2   0.090000        1.0079           0
   26574 O1   114  DMPC C312 CTL2  -0.180000       12.0107           0
   26575 O1   114  DMPC H12X HAL2   0.090000        1.0079           0
   26576 O1   114  DMPC H12Y HAL2   0.090000        1.0079           0
   26577 O1   114  DMPC C313 CTL2  -0.180000       12.0107           0
   26578 O1   114  DMPC H13X HAL2   0.090000        1.0079           0
   26579 O1   114  DMPC H13Y HAL2   0.090000        1.0079           0
   26580 O1   114  DMPC C314 CTL3  -0.270000       12.0107           0
   26581 O1   114  DMPC H14X HAL3   0.090000        1.0079           0
   26582 O1   114  DMPC H14Y HAL3   0.090000        1.0079           0
   26583 O1   114  DMPC H14Z HAL3   0.090000        1.0079           0
   26584 O1   115  DMPC N    NTL   -0.600000       14.0067           0
   26585 O1   115  DMPC C13  CTL5  -0.350000       12.0107           0
   26586 O1   115  DMPC H13A HL     0.250000        1.0079           0
   26587 O1   115  DMPC H13B HL     0.250000        1.0079           0
   26588 O1   115  DMPC H13C HL     0.250000        1.0079           0
   26589 O1   115  DMPC C14  CTL5  -0.350000       12.0107           0
   26590 O1   115  DMPC H14A HL     0.250000        1.0079           0
   26591 O1   115  DMPC H14B HL     0.250000        1.0079           0
   26592 O1   115  DMPC H14C HL     0.250000        1.0079           0
   26593 O1   115  DMPC C15  CTL5  -0.350000       12.0107           0
   26594 O1   115  DMPC H15A HL     0.250000        1.0079           0
   26595 O1   115  DMPC H15B HL     0.250000        1.0079           0
   26596 O1   115  DMPC H15C HL     0.250000        1.0079           0
   26597 O1   115  DMPC C12  CTL2  -0.100000       12.0107           0
   26598 O1   115  DMPC H12A HL     0.250000        1.0079           0
   26599 O1   115  DMPC H12B HL     0.250000        1.0079           0
   26600 O1   115  DMPC C11  CTL2  -0.080000       12.0107           0
   26601 O1   115  DMPC H11A HAL2   0.090000        1.0079           0
   26602 O1   115  DMPC H11B HAL2   0.090000        1.0079           0
   26603 O1   115  DMPC P    PL     1.500000       30.9738           0
   26604 O1   115  DMPC O13  O2L   -0.780000       15.9994           0
   26605 O1   115  DMPC O14  O2L   -0.780000       15.9994           0
   26606 O1   115  DMPC O11  OSLP  -0.570000       15.9994           0
   26607 O1   115  DMPC O12  OSLP  -0.570000       15.9994           0
   26608 O1   115  DMPC C1   CTL2  -0.080000       12.0107           0
   26609 O1   115  DMPC HA   HAL2   0.090000        1.0079           0
   26610 O1   115  DMPC HB   HAL2   0.090000        1.0079           0
   26611 O1   115  DMPC C2   CTL1   0.170000       12.0107           0
   26612 O1   115  DMPC HS   HAL1   0.090000        1.0079           0
   26613 O1   115  DMPC O21  OSL   -0.490000       15.9994           0
   26614 O1   115  DMPC C21  CL     0.900000       12.0107           0
   26615 O1   115  DMPC O22  OBL   -0.630000       15.9994           0
   26616 O1   115  DMPC C22  CTL2  -0.220000       12.0107           0
   26617 O1   115  DMPC H2R  HAL2   0.090000        1.0079           0
   26618 O1   115  DMPC H2S  HAL2   0.090000        1.0079           0
   26619 O1   115  DMPC C3   CTL2   0.080000       12.0107           0
   26620 O1   115  DMPC HX   HAL2   0.090000        1.0079           0
   26621 O1   115  DMPC HY   HAL2   0.090000        1.0079           0
   26622 O1   115  DMPC O31  OSL   -0.490000       15.9994           0
   26623 O1   115  DMPC C31  CL     0.900000       12.0107           0
   26624 O1   115  DMPC O32  OBL   -0.630000       15.9994           0
   26625 O1   115  DMPC C32  CTL2  -0.220000       12.0107           0
   26626 O1   115  DMPC H2X  HAL2   0.090000        1.0079           0
   26627 O1   115  DMPC H2Y  HAL2   0.090000        1.0079           0
   26628 O1   115  DMPC C23  CTL2  -0.180000       12.0107           0
   26629 O1   115  DMPC H3R  HAL2   0.090000        1.0079           0
   26630 O1   115  DMPC H3S  HAL2   0.090000        1.0079           0
   26631 O1   115  DMPC C24  CTL2  -0.180000       12.0107           0
   26632 O1   115  DMPC H4R  HAL2   0.090000        1.0079           0
   26633 O1   115  DMPC H4S  HAL2   0.090000        1.0079           0
   26634 O1   115  DMPC C25  CTL2  -0.180000       12.0107           0
   26635 O1   115  DMPC H5R  HAL2   0.090000        1.0079           0
   26636 O1   115  DMPC H5S  HAL2   0.090000        1.0079           0
   26637 O1   115  DMPC C26  CTL2  -0.180000       12.0107           0
   26638 O1   115  DMPC H6R  HAL2   0.090000        1.0079           0
   26639 O1   115  DMPC H6S  HAL2   0.090000        1.0079           0
   26640 O1   115  DMPC C27  CTL2  -0.180000       12.0107           0
   26641 O1   115  DMPC H7R  HAL2   0.090000        1.0079           0
   26642 O1   115  DMPC H7S  HAL2   0.090000        1.0079           0
   26643 O1   115  DMPC C28  CTL2  -0.180000       12.0107           0
   26644 O1   115  DMPC H8R  HAL2   0.090000        1.0079           0
   26645 O1   115  DMPC H8S  HAL2   0.090000        1.0079           0
   26646 O1   115  DMPC C29  CTL2  -0.180000       12.0107           0
   26647 O1   115  DMPC H9R  HAL2   0.090000        1.0079           0
   26648 O1   115  DMPC H9S  HAL2   0.090000        1.0079           0
   26649 O1   115  DMPC C210 CTL2  -0.180000       12.0107           0
   26650 O1   115  DMPC H10R HAL2   0.090000        1.0079           0
   26651 O1   115  DMPC H10S HAL2   0.090000        1.0079           0
   26652 O1   115  DMPC C211 CTL2  -0.180000       12.0107           0
   26653 O1   115  DMPC H11R HAL2   0.090000        1.0079           0
   26654 O1   115  DMPC H11S HAL2   0.090000        1.0079           0
   26655 O1   115  DMPC C212 CTL2  -0.180000       12.0107           0
   26656 O1   115  DMPC H12R HAL2   0.090000        1.0079           0
   26657 O1   115  DMPC H12S HAL2   0.090000        1.0079           0
   26658 O1   115  DMPC C213 CTL2  -0.180000       12.0107           0
   26659 O1   115  DMPC H13R HAL2   0.090000        1.0079           0
   26660 O1   115  DMPC H13S HAL2   0.090000        1.0079           0
   26661 O1   115  DMPC C214 CTL3  -0.270000       12.0107           0
   26662 O1   115  DMPC H14R HAL3   0.090000        1.0079           0
   26663 O1   115  DMPC H14S HAL3   0.090000        1.0079           0
   26664 O1   115  DMPC H14T HAL3   0.090000        1.0079           0
   26665 O1   115  DMPC C33  CTL2  -0.180000       12.0107           0
   26666 O1   115  DMPC H3X  HAL2   0.090000        1.0079           0
   26667 O1   115  DMPC H3Y  HAL2   0.090000        1.0079           0
   26668 O1   115  DMPC C34  CTL2  -0.180000       12.0107           0
   26669 O1   115  DMPC H4X  HAL2   0.090000        1.0079           0
   26670 O1   115  DMPC H4Y  HAL2   0.090000        1.0079           0
   26671 O1   115  DMPC C35  CTL2  -0.180000       12.0107           0
   26672 O1   115  DMPC H5X  HAL2   0.090000        1.0079           0
   26673 O1   115  DMPC H5Y  HAL2   0.090000        1.0079           0
   26674 O1   115  DMPC C36  CTL2  -0.180000       12.0107           0
   26675 O1   115  DMPC H6X  HAL2   0.090000        1.0079           0
   26676 O1   115  DMPC H6Y  HAL2   0.090000        1.0079           0
   26677 O1   115  DMPC C37  CTL2  -0.180000       12.0107           0
   26678 O1   115  DMPC H7X  HAL2   0.090000        1.0079           0
   26679 O1   115  DMPC H7Y  HAL2   0.090000        1.0079           0
   26680 O1   115  DMPC C38  CTL2  -0.180000       12.0107           0
   26681 O1   115  DMPC H8X  HAL2   0.090000        1.0079           0
   26682 O1   115  DMPC H8Y  HAL2   0.090000        1.0079           0
   26683 O1   115  DMPC C39  CTL2  -0.180000       12.0107           0
   26684 O1   115  DMPC H9X  HAL2   0.090000        1.0079           0
   26685 O1   115  DMPC H9Y  HAL2   0.090000        1.0079           0
   26686 O1   115  DMPC C310 CTL2  -0.180000       12.0107           0
   26687 O1   115  DMPC H10X HAL2   0.090000        1.0079           0
   26688 O1   115  DMPC H10Y HAL2   0.090000        1.0079           0
   26689 O1   115  DMPC C311 CTL2  -0.180000       12.0107           0
   26690 O1   115  DMPC H11X HAL2   0.090000        1.0079           0
   26691 O1   115  DMPC H11Y HAL2   0.090000        1.0079           0
   26692 O1   115  DMPC C312 CTL2  -0.180000       12.0107           0
   26693 O1   115  DMPC H12X HAL2   0.090000        1.0079           0
   26694 O1   115  DMPC H12Y HAL2   0.090000        1.0079           0
   26695 O1   115  DMPC C313 CTL2  -0.180000       12.0107           0
   26696 O1   115  DMPC H13X HAL2   0.090000        1.0079           0
   26697 O1   115  DMPC H13Y HAL2   0.090000        1.0079           0
   26698 O1   115  DMPC C314 CTL3  -0.270000       12.0107           0
   26699 O1   115  DMPC H14X HAL3   0.090000        1.0079           0
   26700 O1   115  DMPC H14Y HAL3   0.090000        1.0079           0
   26701 O1   115  DMPC H14Z HAL3   0.090000        1.0079           0
   26702 O1   116  DMPC N    NTL   -0.600000       14.0067           0
   26703 O1   116  DMPC C13  CTL5  -0.350000       12.0107           0
   26704 O1   116  DMPC H13A HL     0.250000        1.0079           0
   26705 O1   116  DMPC H13B HL     0.250000        1.0079           0
   26706 O1   116  DMPC H13C HL     0.250000        1.0079           0
   26707 O1   116  DMPC C14  CTL5  -0.350000       12.0107           0
   26708 O1   116  DMPC H14A HL     0.250000        1.0079           0
   26709 O1   116  DMPC H14B HL     0.250000        1.0079           0
   26710 O1   116  DMPC H14C HL     0.250000        1.0079           0
   26711 O1   116  DMPC C15  CTL5  -0.350000       12.0107           0
   26712 O1   116  DMPC H15A HL     0.250000        1.0079           0
   26713 O1   116  DMPC H15B HL     0.250000        1.0079           0
   26714 O1   116  DMPC H15C HL     0.250000        1.0079           0
   26715 O1   116  DMPC C12  CTL2  -0.100000       12.0107           0
   26716 O1   116  DMPC H12A HL     0.250000        1.0079           0
   26717 O1   116  DMPC H12B HL     0.250000        1.0079           0
   26718 O1   116  DMPC C11  CTL2  -0.080000       12.0107           0
   26719 O1   116  DMPC H11A HAL2   0.090000        1.0079           0
   26720 O1   116  DMPC H11B HAL2   0.090000        1.0079           0
   26721 O1   116  DMPC P    PL     1.500000       30.9738           0
   26722 O1   116  DMPC O13  O2L   -0.780000       15.9994           0
   26723 O1   116  DMPC O14  O2L   -0.780000       15.9994           0
   26724 O1   116  DMPC O11  OSLP  -0.570000       15.9994           0
   26725 O1   116  DMPC O12  OSLP  -0.570000       15.9994           0
   26726 O1   116  DMPC C1   CTL2  -0.080000       12.0107           0
   26727 O1   116  DMPC HA   HAL2   0.090000        1.0079           0
   26728 O1   116  DMPC HB   HAL2   0.090000        1.0079           0
   26729 O1   116  DMPC C2   CTL1   0.170000       12.0107           0
   26730 O1   116  DMPC HS   HAL1   0.090000        1.0079           0
   26731 O1   116  DMPC O21  OSL   -0.490000       15.9994           0
   26732 O1   116  DMPC C21  CL     0.900000       12.0107           0
   26733 O1   116  DMPC O22  OBL   -0.630000       15.9994           0
   26734 O1   116  DMPC C22  CTL2  -0.220000       12.0107           0
   26735 O1   116  DMPC H2R  HAL2   0.090000        1.0079           0
   26736 O1   116  DMPC H2S  HAL2   0.090000        1.0079           0
   26737 O1   116  DMPC C3   CTL2   0.080000       12.0107           0
   26738 O1   116  DMPC HX   HAL2   0.090000        1.0079           0
   26739 O1   116  DMPC HY   HAL2   0.090000        1.0079           0
   26740 O1   116  DMPC O31  OSL   -0.490000       15.9994           0
   26741 O1   116  DMPC C31  CL     0.900000       12.0107           0
   26742 O1   116  DMPC O32  OBL   -0.630000       15.9994           0
   26743 O1   116  DMPC C32  CTL2  -0.220000       12.0107           0
   26744 O1   116  DMPC H2X  HAL2   0.090000        1.0079           0
   26745 O1   116  DMPC H2Y  HAL2   0.090000        1.0079           0
   26746 O1   116  DMPC C23  CTL2  -0.180000       12.0107           0
   26747 O1   116  DMPC H3R  HAL2   0.090000        1.0079           0
   26748 O1   116  DMPC H3S  HAL2   0.090000        1.0079           0
   26749 O1   116  DMPC C24  CTL2  -0.180000       12.0107           0
   26750 O1   116  DMPC H4R  HAL2   0.090000        1.0079           0
   26751 O1   116  DMPC H4S  HAL2   0.090000        1.0079           0
   26752 O1   116  DMPC C25  CTL2  -0.180000       12.0107           0
   26753 O1   116  DMPC H5R  HAL2   0.090000        1.0079           0
   26754 O1   116  DMPC H5S  HAL2   0.090000        1.0079           0
   26755 O1   116  DMPC C26  CTL2  -0.180000       12.0107           0
   26756 O1   116  DMPC H6R  HAL2   0.090000        1.0079           0
   26757 O1   116  DMPC H6S  HAL2   0.090000        1.0079           0
   26758 O1   116  DMPC C27  CTL2  -0.180000       12.0107           0
   26759 O1   116  DMPC H7R  HAL2   0.090000        1.0079           0
   26760 O1   116  DMPC H7S  HAL2   0.090000        1.0079           0
   26761 O1   116  DMPC C28  CTL2  -0.180000       12.0107           0
   26762 O1   116  DMPC H8R  HAL2   0.090000        1.0079           0
   26763 O1   116  DMPC H8S  HAL2   0.090000        1.0079           0
   26764 O1   116  DMPC C29  CTL2  -0.180000       12.0107           0
   26765 O1   116  DMPC H9R  HAL2   0.090000        1.0079           0
   26766 O1   116  DMPC H9S  HAL2   0.090000        1.0079           0
   26767 O1   116  DMPC C210 CTL2  -0.180000       12.0107           0
   26768 O1   116  DMPC H10R HAL2   0.090000        1.0079           0
   26769 O1   116  DMPC H10S HAL2   0.090000        1.0079           0
   26770 O1   116  DMPC C211 CTL2  -0.180000       12.0107           0
   26771 O1   116  DMPC H11R HAL2   0.090000        1.0079           0
   26772 O1   116  DMPC H11S HAL2   0.090000        1.0079           0
   26773 O1   116  DMPC C212 CTL2  -0.180000       12.0107           0
   26774 O1   116  DMPC H12R HAL2   0.090000        1.0079           0
   26775 O1   116  DMPC H12S HAL2   0.090000        1.0079           0
   26776 O1   116  DMPC C213 CTL2  -0.180000       12.0107           0
   26777 O1   116  DMPC H13R HAL2   0.090000        1.0079           0
   26778 O1   116  DMPC H13S HAL2   0.090000        1.0079           0
   26779 O1   116  DMPC C214 CTL3  -0.270000       12.0107           0
   26780 O1   116  DMPC H14R HAL3   0.090000        1.0079           0
   26781 O1   116  DMPC H14S HAL3   0.090000        1.0079           0
   26782 O1   116  DMPC H14T HAL3   0.090000        1.0079           0
   26783 O1   116  DMPC C33  CTL2  -0.180000       12.0107           0
   26784 O1   116  DMPC H3X  HAL2   0.090000        1.0079           0
   26785 O1   116  DMPC H3Y  HAL2   0.090000        1.0079           0
   26786 O1   116  DMPC C34  CTL2  -0.180000       12.0107           0
   26787 O1   116  DMPC H4X  HAL2   0.090000        1.0079           0
   26788 O1   116  DMPC H4Y  HAL2   0.090000        1.0079           0
   26789 O1   116  DMPC C35  CTL2  -0.180000       12.0107           0
   26790 O1   116  DMPC H5X  HAL2   0.090000        1.0079           0
   26791 O1   116  DMPC H5Y  HAL2   0.090000        1.0079           0
   26792 O1   116  DMPC C36  CTL2  -0.180000       12.0107           0
   26793 O1   116  DMPC H6X  HAL2   0.090000        1.0079           0
   26794 O1   116  DMPC H6Y  HAL2   0.090000        1.0079           0
   26795 O1   116  DMPC C37  CTL2  -0.180000       12.0107           0
   26796 O1   116  DMPC H7X  HAL2   0.090000        1.0079           0
   26797 O1   116  DMPC H7Y  HAL2   0.090000        1.0079           0
   26798 O1   116  DMPC C38  CTL2  -0.180000       12.0107           0
   26799 O1   116  DMPC H8X  HAL2   0.090000        1.0079           0
   26800 O1   116  DMPC H8Y  HAL2   0.090000        1.0079           0
   26801 O1   116  DMPC C39  CTL2  -0.180000       12.0107           0
   26802 O1   116  DMPC H9X  HAL2   0.090000        1.0079           0
   26803 O1   116  DMPC H9Y  HAL2   0.090000        1.0079           0
   26804 O1   116  DMPC C310 CTL2  -0.180000       12.0107           0
   26805 O1   116  DMPC H10X HAL2   0.090000        1.0079           0
   26806 O1   116  DMPC H10Y HAL2   0.090000        1.0079           0
   26807 O1   116  DMPC C311 CTL2  -0.180000       12.0107           0
   26808 O1   116  DMPC H11X HAL2   0.090000        1.0079           0
   26809 O1   116  DMPC H11Y HAL2   0.090000        1.0079           0
   26810 O1   116  DMPC C312 CTL2  -0.180000       12.0107           0
   26811 O1   116  DMPC H12X HAL2   0.090000        1.0079           0
   26812 O1   116  DMPC H12Y HAL2   0.090000        1.0079           0
   26813 O1   116  DMPC C313 CTL2  -0.180000       12.0107           0
   26814 O1   116  DMPC H13X HAL2   0.090000        1.0079           0
   26815 O1   116  DMPC H13Y HAL2   0.090000        1.0079           0
   26816 O1   116  DMPC C314 CTL3  -0.270000       12.0107           0
   26817 O1   116  DMPC H14X HAL3   0.090000        1.0079           0
   26818 O1   116  DMPC H14Y HAL3   0.090000        1.0079           0
   26819 O1   116  DMPC H14Z HAL3   0.090000        1.0079           0
   26820 O1   117  DMPC N    NTL   -0.600000       14.0067           0
   26821 O1   117  DMPC C13  CTL5  -0.350000       12.0107           0
   26822 O1   117  DMPC H13A HL     0.250000        1.0079           0
   26823 O1   117  DMPC H13B HL     0.250000        1.0079           0
   26824 O1   117  DMPC H13C HL     0.250000        1.0079           0
   26825 O1   117  DMPC C14  CTL5  -0.350000       12.0107           0
   26826 O1   117  DMPC H14A HL     0.250000        1.0079           0
   26827 O1   117  DMPC H14B HL     0.250000        1.0079           0
   26828 O1   117  DMPC H14C HL     0.250000        1.0079           0
   26829 O1   117  DMPC C15  CTL5  -0.350000       12.0107           0
   26830 O1   117  DMPC H15A HL     0.250000        1.0079           0
   26831 O1   117  DMPC H15B HL     0.250000        1.0079           0
   26832 O1   117  DMPC H15C HL     0.250000        1.0079           0
   26833 O1   117  DMPC C12  CTL2  -0.100000       12.0107           0
   26834 O1   117  DMPC H12A HL     0.250000        1.0079           0
   26835 O1   117  DMPC H12B HL     0.250000        1.0079           0
   26836 O1   117  DMPC C11  CTL2  -0.080000       12.0107           0
   26837 O1   117  DMPC H11A HAL2   0.090000        1.0079           0
   26838 O1   117  DMPC H11B HAL2   0.090000        1.0079           0
   26839 O1   117  DMPC P    PL     1.500000       30.9738           0
   26840 O1   117  DMPC O13  O2L   -0.780000       15.9994           0
   26841 O1   117  DMPC O14  O2L   -0.780000       15.9994           0
   26842 O1   117  DMPC O11  OSLP  -0.570000       15.9994           0
   26843 O1   117  DMPC O12  OSLP  -0.570000       15.9994           0
   26844 O1   117  DMPC C1   CTL2  -0.080000       12.0107           0
   26845 O1   117  DMPC HA   HAL2   0.090000        1.0079           0
   26846 O1   117  DMPC HB   HAL2   0.090000        1.0079           0
   26847 O1   117  DMPC C2   CTL1   0.170000       12.0107           0
   26848 O1   117  DMPC HS   HAL1   0.090000        1.0079           0
   26849 O1   117  DMPC O21  OSL   -0.490000       15.9994           0
   26850 O1   117  DMPC C21  CL     0.900000       12.0107           0
   26851 O1   117  DMPC O22  OBL   -0.630000       15.9994           0
   26852 O1   117  DMPC C22  CTL2  -0.220000       12.0107           0
   26853 O1   117  DMPC H2R  HAL2   0.090000        1.0079           0
   26854 O1   117  DMPC H2S  HAL2   0.090000        1.0079           0
   26855 O1   117  DMPC C3   CTL2   0.080000       12.0107           0
   26856 O1   117  DMPC HX   HAL2   0.090000        1.0079           0
   26857 O1   117  DMPC HY   HAL2   0.090000        1.0079           0
   26858 O1   117  DMPC O31  OSL   -0.490000       15.9994           0
   26859 O1   117  DMPC C31  CL     0.900000       12.0107           0
   26860 O1   117  DMPC O32  OBL   -0.630000       15.9994           0
   26861 O1   117  DMPC C32  CTL2  -0.220000       12.0107           0
   26862 O1   117  DMPC H2X  HAL2   0.090000        1.0079           0
   26863 O1   117  DMPC H2Y  HAL2   0.090000        1.0079           0
   26864 O1   117  DMPC C23  CTL2  -0.180000       12.0107           0
   26865 O1   117  DMPC H3R  HAL2   0.090000        1.0079           0
   26866 O1   117  DMPC H3S  HAL2   0.090000        1.0079           0
   26867 O1   117  DMPC C24  CTL2  -0.180000       12.0107           0
   26868 O1   117  DMPC H4R  HAL2   0.090000        1.0079           0
   26869 O1   117  DMPC H4S  HAL2   0.090000        1.0079           0
   26870 O1   117  DMPC C25  CTL2  -0.180000       12.0107           0
   26871 O1   117  DMPC H5R  HAL2   0.090000        1.0079           0
   26872 O1   117  DMPC H5S  HAL2   0.090000        1.0079           0
   26873 O1   117  DMPC C26  CTL2  -0.180000       12.0107           0
   26874 O1   117  DMPC H6R  HAL2   0.090000        1.0079           0
   26875 O1   117  DMPC H6S  HAL2   0.090000        1.0079           0
   26876 O1   117  DMPC C27  CTL2  -0.180000       12.0107           0
   26877 O1   117  DMPC H7R  HAL2   0.090000        1.0079           0
   26878 O1   117  DMPC H7S  HAL2   0.090000        1.0079           0
   26879 O1   117  DMPC C28  CTL2  -0.180000       12.0107           0
   26880 O1   117  DMPC H8R  HAL2   0.090000        1.0079           0
   26881 O1   117  DMPC H8S  HAL2   0.090000        1.0079           0
   26882 O1   117  DMPC C29  CTL2  -0.180000       12.0107           0
   26883 O1   117  DMPC H9R  HAL2   0.090000        1.0079           0
   26884 O1   117  DMPC H9S  HAL2   0.090000        1.0079           0
   26885 O1   117  DMPC C210 CTL2  -0.180000       12.0107           0
   26886 O1   117  DMPC H10R HAL2   0.090000        1.0079           0
   26887 O1   117  DMPC H10S HAL2   0.090000        1.0079           0
   26888 O1   117  DMPC C211 CTL2  -0.180000       12.0107           0
   26889 O1   117  DMPC H11R HAL2   0.090000        1.0079           0
   26890 O1   117  DMPC H11S HAL2   0.090000        1.0079           0
   26891 O1   117  DMPC C212 CTL2  -0.180000       12.0107           0
   26892 O1   117  DMPC H12R HAL2   0.090000        1.0079           0
   26893 O1   117  DMPC H12S HAL2   0.090000        1.0079           0
   26894 O1   117  DMPC C213 CTL2  -0.180000       12.0107           0
   26895 O1   117  DMPC H13R HAL2   0.090000        1.0079           0
   26896 O1   117  DMPC H13S HAL2   0.090000        1.0079           0
   26897 O1   117  DMPC C214 CTL3  -0.270000       12.0107           0
   26898 O1   117  DMPC H14R HAL3   0.090000        1.0079           0
   26899 O1   117  DMPC H14S HAL3   0.090000        1.0079           0
   26900 O1   117  DMPC H14T HAL3   0.090000        1.0079           0
   26901 O1   117  DMPC C33  CTL2  -0.180000       12.0107           0
   26902 O1   117  DMPC H3X  HAL2   0.090000        1.0079           0
   26903 O1   117  DMPC H3Y  HAL2   0.090000        1.0079           0
   26904 O1   117  DMPC C34  CTL2  -0.180000       12.0107           0
   26905 O1   117  DMPC H4X  HAL2   0.090000        1.0079           0
   26906 O1   117  DMPC H4Y  HAL2   0.090000        1.0079           0
   26907 O1   117  DMPC C35  CTL2  -0.180000       12.0107           0
   26908 O1   117  DMPC H5X  HAL2   0.090000        1.0079           0
   26909 O1   117  DMPC H5Y  HAL2   0.090000        1.0079           0
   26910 O1   117  DMPC C36  CTL2  -0.180000       12.0107           0
   26911 O1   117  DMPC H6X  HAL2   0.090000        1.0079           0
   26912 O1   117  DMPC H6Y  HAL2   0.090000        1.0079           0
   26913 O1   117  DMPC C37  CTL2  -0.180000       12.0107           0
   26914 O1   117  DMPC H7X  HAL2   0.090000        1.0079           0
   26915 O1   117  DMPC H7Y  HAL2   0.090000        1.0079           0
   26916 O1   117  DMPC C38  CTL2  -0.180000       12.0107           0
   26917 O1   117  DMPC H8X  HAL2   0.090000        1.0079           0
   26918 O1   117  DMPC H8Y  HAL2   0.090000        1.0079           0
   26919 O1   117  DMPC C39  CTL2  -0.180000       12.0107           0
   26920 O1   117  DMPC H9X  HAL2   0.090000        1.0079           0
   26921 O1   117  DMPC H9Y  HAL2   0.090000        1.0079           0
   26922 O1   117  DMPC C310 CTL2  -0.180000       12.0107           0
   26923 O1   117  DMPC H10X HAL2   0.090000        1.0079           0
   26924 O1   117  DMPC H10Y HAL2   0.090000        1.0079           0
   26925 O1   117  DMPC C311 CTL2  -0.180000       12.0107           0
   26926 O1   117  DMPC H11X HAL2   0.090000        1.0079           0
   26927 O1   117  DMPC H11Y HAL2   0.090000        1.0079           0
   26928 O1   117  DMPC C312 CTL2  -0.180000       12.0107           0
   26929 O1   117  DMPC H12X HAL2   0.090000        1.0079           0
   26930 O1   117  DMPC H12Y HAL2   0.090000        1.0079           0
   26931 O1   117  DMPC C313 CTL2  -0.180000       12.0107           0
   26932 O1   117  DMPC H13X HAL2   0.090000        1.0079           0
   26933 O1   117  DMPC H13Y HAL2   0.090000        1.0079           0
   26934 O1   117  DMPC C314 CTL3  -0.270000       12.0107           0
   26935 O1   117  DMPC H14X HAL3   0.090000        1.0079           0
   26936 O1   117  DMPC H14Y HAL3   0.090000        1.0079           0
   26937 O1   117  DMPC H14Z HAL3   0.090000        1.0079           0
   26938 O1   118  DMPC N    NTL   -0.600000       14.0067           0
   26939 O1   118  DMPC C13  CTL5  -0.350000       12.0107           0
   26940 O1   118  DMPC H13A HL     0.250000        1.0079           0
   26941 O1   118  DMPC H13B HL     0.250000        1.0079           0
   26942 O1   118  DMPC H13C HL     0.250000        1.0079           0
   26943 O1   118  DMPC C14  CTL5  -0.350000       12.0107           0
   26944 O1   118  DMPC H14A HL     0.250000        1.0079           0
   26945 O1   118  DMPC H14B HL     0.250000        1.0079           0
   26946 O1   118  DMPC H14C HL     0.250000        1.0079           0
   26947 O1   118  DMPC C15  CTL5  -0.350000       12.0107           0
   26948 O1   118  DMPC H15A HL     0.250000        1.0079           0
   26949 O1   118  DMPC H15B HL     0.250000        1.0079           0
   26950 O1   118  DMPC H15C HL     0.250000        1.0079           0
   26951 O1   118  DMPC C12  CTL2  -0.100000       12.0107           0
   26952 O1   118  DMPC H12A HL     0.250000        1.0079           0
   26953 O1   118  DMPC H12B HL     0.250000        1.0079           0
   26954 O1   118  DMPC C11  CTL2  -0.080000       12.0107           0
   26955 O1   118  DMPC H11A HAL2   0.090000        1.0079           0
   26956 O1   118  DMPC H11B HAL2   0.090000        1.0079           0
   26957 O1   118  DMPC P    PL     1.500000       30.9738           0
   26958 O1   118  DMPC O13  O2L   -0.780000       15.9994           0
   26959 O1   118  DMPC O14  O2L   -0.780000       15.9994           0
   26960 O1   118  DMPC O11  OSLP  -0.570000       15.9994           0
   26961 O1   118  DMPC O12  OSLP  -0.570000       15.9994           0
   26962 O1   118  DMPC C1   CTL2  -0.080000       12.0107           0
   26963 O1   118  DMPC HA   HAL2   0.090000        1.0079           0
   26964 O1   118  DMPC HB   HAL2   0.090000        1.0079           0
   26965 O1   118  DMPC C2   CTL1   0.170000       12.0107           0
   26966 O1   118  DMPC HS   HAL1   0.090000        1.0079           0
   26967 O1   118  DMPC O21  OSL   -0.490000       15.9994           0
   26968 O1   118  DMPC C21  CL     0.900000       12.0107           0
   26969 O1   118  DMPC O22  OBL   -0.630000       15.9994           0
   26970 O1   118  DMPC C22  CTL2  -0.220000       12.0107           0
   26971 O1   118  DMPC H2R  HAL2   0.090000        1.0079           0
   26972 O1   118  DMPC H2S  HAL2   0.090000        1.0079           0
   26973 O1   118  DMPC C3   CTL2   0.080000       12.0107           0
   26974 O1   118  DMPC HX   HAL2   0.090000        1.0079           0
   26975 O1   118  DMPC HY   HAL2   0.090000        1.0079           0
   26976 O1   118  DMPC O31  OSL   -0.490000       15.9994           0
   26977 O1   118  DMPC C31  CL     0.900000       12.0107           0
   26978 O1   118  DMPC O32  OBL   -0.630000       15.9994           0
   26979 O1   118  DMPC C32  CTL2  -0.220000       12.0107           0
   26980 O1   118  DMPC H2X  HAL2   0.090000        1.0079           0
   26981 O1   118  DMPC H2Y  HAL2   0.090000        1.0079           0
   26982 O1   118  DMPC C23  CTL2  -0.180000       12.0107           0
   26983 O1   118  DMPC H3R  HAL2   0.090000        1.0079           0
   26984 O1   118  DMPC H3S  HAL2   0.090000        1.0079           0
   26985 O1   118  DMPC C24  CTL2  -0.180000       12.0107           0
   26986 O1   118  DMPC H4R  HAL2   0.090000        1.0079           0
   26987 O1   118  DMPC H4S  HAL2   0.090000        1.0079           0
   26988 O1   118  DMPC C25  CTL2  -0.180000       12.0107           0
   26989 O1   118  DMPC H5R  HAL2   0.090000        1.0079           0
   26990 O1   118  DMPC H5S  HAL2   0.090000        1.0079           0
   26991 O1   118  DMPC C26  CTL2  -0.180000       12.0107           0
   26992 O1   118  DMPC H6R  HAL2   0.090000        1.0079           0
   26993 O1   118  DMPC H6S  HAL2   0.090000        1.0079           0
   26994 O1   118  DMPC C27  CTL2  -0.180000       12.0107           0
   26995 O1   118  DMPC H7R  HAL2   0.090000        1.0079           0
   26996 O1   118  DMPC H7S  HAL2   0.090000        1.0079           0
   26997 O1   118  DMPC C28  CTL2  -0.180000       12.0107           0
   26998 O1   118  DMPC H8R  HAL2   0.090000        1.0079           0
   26999 O1   118  DMPC H8S  HAL2   0.090000        1.0079           0
   27000 O1   118  DMPC C29  CTL2  -0.180000       12.0107           0
   27001 O1   118  DMPC H9R  HAL2   0.090000        1.0079           0
   27002 O1   118  DMPC H9S  HAL2   0.090000        1.0079           0
   27003 O1   118  DMPC C210 CTL2  -0.180000       12.0107           0
   27004 O1   118  DMPC H10R HAL2   0.090000        1.0079           0
   27005 O1   118  DMPC H10S HAL2   0.090000        1.0079           0
   27006 O1   118  DMPC C211 CTL2  -0.180000       12.0107           0
   27007 O1   118  DMPC H11R HAL2   0.090000        1.0079           0
   27008 O1   118  DMPC H11S HAL2   0.090000        1.0079           0
   27009 O1   118  DMPC C212 CTL2  -0.180000       12.0107           0
   27010 O1   118  DMPC H12R HAL2   0.090000        1.0079           0
   27011 O1   118  DMPC H12S HAL2   0.090000        1.0079           0
   27012 O1   118  DMPC C213 CTL2  -0.180000       12.0107           0
   27013 O1   118  DMPC H13R HAL2   0.090000        1.0079           0
   27014 O1   118  DMPC H13S HAL2   0.090000        1.0079           0
   27015 O1   118  DMPC C214 CTL3  -0.270000       12.0107           0
   27016 O1   118  DMPC H14R HAL3   0.090000        1.0079           0
   27017 O1   118  DMPC H14S HAL3   0.090000        1.0079           0
   27018 O1   118  DMPC H14T HAL3   0.090000        1.0079           0
   27019 O1   118  DMPC C33  CTL2  -0.180000       12.0107           0
   27020 O1   118  DMPC H3X  HAL2   0.090000        1.0079           0
   27021 O1   118  DMPC H3Y  HAL2   0.090000        1.0079           0
   27022 O1   118  DMPC C34  CTL2  -0.180000       12.0107           0
   27023 O1   118  DMPC H4X  HAL2   0.090000        1.0079           0
   27024 O1   118  DMPC H4Y  HAL2   0.090000        1.0079           0
   27025 O1   118  DMPC C35  CTL2  -0.180000       12.0107           0
   27026 O1   118  DMPC H5X  HAL2   0.090000        1.0079           0
   27027 O1   118  DMPC H5Y  HAL2   0.090000        1.0079           0
   27028 O1   118  DMPC C36  CTL2  -0.180000       12.0107           0
   27029 O1   118  DMPC H6X  HAL2   0.090000        1.0079           0
   27030 O1   118  DMPC H6Y  HAL2   0.090000        1.0079           0
   27031 O1   118  DMPC C37  CTL2  -0.180000       12.0107           0
   27032 O1   118  DMPC H7X  HAL2   0.090000        1.0079           0
   27033 O1   118  DMPC H7Y  HAL2   0.090000        1.0079           0
   27034 O1   118  DMPC C38  CTL2  -0.180000       12.0107           0
   27035 O1   118  DMPC H8X  HAL2   0.090000        1.0079           0
   27036 O1   118  DMPC H8Y  HAL2   0.090000        1.0079           0
   27037 O1   118  DMPC C39  CTL2  -0.180000       12.0107           0
   27038 O1   118  DMPC H9X  HAL2   0.090000        1.0079           0
   27039 O1   118  DMPC H9Y  HAL2   0.090000        1.0079           0
   27040 O1   118  DMPC C310 CTL2  -0.180000       12.0107           0
   27041 O1   118  DMPC H10X HAL2   0.090000        1.0079           0
   27042 O1   118  DMPC H10Y HAL2   0.090000        1.0079           0
   27043 O1   118  DMPC C311 CTL2  -0.180000       12.0107           0
   27044 O1   118  DMPC H11X HAL2   0.090000        1.0079           0
   27045 O1   118  DMPC H11Y HAL2   0.090000        1.0079           0
   27046 O1   118  DMPC C312 CTL2  -0.180000       12.0107           0
   27047 O1   118  DMPC H12X HAL2   0.090000        1.0079           0
   27048 O1   118  DMPC H12Y HAL2   0.090000        1.0079           0
   27049 O1   118  DMPC C313 CTL2  -0.180000       12.0107           0
   27050 O1   118  DMPC H13X HAL2   0.090000        1.0079           0
   27051 O1   118  DMPC H13Y HAL2   0.090000        1.0079           0
   27052 O1   118  DMPC C314 CTL3  -0.270000       12.0107           0
   27053 O1   118  DMPC H14X HAL3   0.090000        1.0079           0
   27054 O1   118  DMPC H14Y HAL3   0.090000        1.0079           0
   27055 O1   118  DMPC H14Z HAL3   0.090000        1.0079           0
   27056 O1   119  DMPC N    NTL   -0.600000       14.0067           0
   27057 O1   119  DMPC C13  CTL5  -0.350000       12.0107           0
   27058 O1   119  DMPC H13A HL     0.250000        1.0079           0
   27059 O1   119  DMPC H13B HL     0.250000        1.0079           0
   27060 O1   119  DMPC H13C HL     0.250000        1.0079           0
   27061 O1   119  DMPC C14  CTL5  -0.350000       12.0107           0
   27062 O1   119  DMPC H14A HL     0.250000        1.0079           0
   27063 O1   119  DMPC H14B HL     0.250000        1.0079           0
   27064 O1   119  DMPC H14C HL     0.250000        1.0079           0
   27065 O1   119  DMPC C15  CTL5  -0.350000       12.0107           0
   27066 O1   119  DMPC H15A HL     0.250000        1.0079           0
   27067 O1   119  DMPC H15B HL     0.250000        1.0079           0
   27068 O1   119  DMPC H15C HL     0.250000        1.0079           0
   27069 O1   119  DMPC C12  CTL2  -0.100000       12.0107           0
   27070 O1   119  DMPC H12A HL     0.250000        1.0079           0
   27071 O1   119  DMPC H12B HL     0.250000        1.0079           0
   27072 O1   119  DMPC C11  CTL2  -0.080000       12.0107           0
   27073 O1   119  DMPC H11A HAL2   0.090000        1.0079           0
   27074 O1   119  DMPC H11B HAL2   0.090000        1.0079           0
   27075 O1   119  DMPC P    PL     1.500000       30.9738           0
   27076 O1   119  DMPC O13  O2L   -0.780000       15.9994           0
   27077 O1   119  DMPC O14  O2L   -0.780000       15.9994           0
   27078 O1   119  DMPC O11  OSLP  -0.570000       15.9994           0
   27079 O1   119  DMPC O12  OSLP  -0.570000       15.9994           0
   27080 O1   119  DMPC C1   CTL2  -0.080000       12.0107           0
   27081 O1   119  DMPC HA   HAL2   0.090000        1.0079           0
   27082 O1   119  DMPC HB   HAL2   0.090000        1.0079           0
   27083 O1   119  DMPC C2   CTL1   0.170000       12.0107           0
   27084 O1   119  DMPC HS   HAL1   0.090000        1.0079           0
   27085 O1   119  DMPC O21  OSL   -0.490000       15.9994           0
   27086 O1   119  DMPC C21  CL     0.900000       12.0107           0
   27087 O1   119  DMPC O22  OBL   -0.630000       15.9994           0
   27088 O1   119  DMPC C22  CTL2  -0.220000       12.0107           0
   27089 O1   119  DMPC H2R  HAL2   0.090000        1.0079           0
   27090 O1   119  DMPC H2S  HAL2   0.090000        1.0079           0
   27091 O1   119  DMPC C3   CTL2   0.080000       12.0107           0
   27092 O1   119  DMPC HX   HAL2   0.090000        1.0079           0
   27093 O1   119  DMPC HY   HAL2   0.090000        1.0079           0
   27094 O1   119  DMPC O31  OSL   -0.490000       15.9994           0
   27095 O1   119  DMPC C31  CL     0.900000       12.0107           0
   27096 O1   119  DMPC O32  OBL   -0.630000       15.9994           0
   27097 O1   119  DMPC C32  CTL2  -0.220000       12.0107           0
   27098 O1   119  DMPC H2X  HAL2   0.090000        1.0079           0
   27099 O1   119  DMPC H2Y  HAL2   0.090000        1.0079           0
   27100 O1   119  DMPC C23  CTL2  -0.180000       12.0107           0
   27101 O1   119  DMPC H3R  HAL2   0.090000        1.0079           0
   27102 O1   119  DMPC H3S  HAL2   0.090000        1.0079           0
   27103 O1   119  DMPC C24  CTL2  -0.180000       12.0107           0
   27104 O1   119  DMPC H4R  HAL2   0.090000        1.0079           0
   27105 O1   119  DMPC H4S  HAL2   0.090000        1.0079           0
   27106 O1   119  DMPC C25  CTL2  -0.180000       12.0107           0
   27107 O1   119  DMPC H5R  HAL2   0.090000        1.0079           0
   27108 O1   119  DMPC H5S  HAL2   0.090000        1.0079           0
   27109 O1   119  DMPC C26  CTL2  -0.180000       12.0107           0
   27110 O1   119  DMPC H6R  HAL2   0.090000        1.0079           0
   27111 O1   119  DMPC H6S  HAL2   0.090000        1.0079           0
   27112 O1   119  DMPC C27  CTL2  -0.180000       12.0107           0
   27113 O1   119  DMPC H7R  HAL2   0.090000        1.0079           0
   27114 O1   119  DMPC H7S  HAL2   0.090000        1.0079           0
   27115 O1   119  DMPC C28  CTL2  -0.180000       12.0107           0
   27116 O1   119  DMPC H8R  HAL2   0.090000        1.0079           0
   27117 O1   119  DMPC H8S  HAL2   0.090000        1.0079           0
   27118 O1   119  DMPC C29  CTL2  -0.180000       12.0107           0
   27119 O1   119  DMPC H9R  HAL2   0.090000        1.0079           0
   27120 O1   119  DMPC H9S  HAL2   0.090000        1.0079           0
   27121 O1   119  DMPC C210 CTL2  -0.180000       12.0107           0
   27122 O1   119  DMPC H10R HAL2   0.090000        1.0079           0
   27123 O1   119  DMPC H10S HAL2   0.090000        1.0079           0
   27124 O1   119  DMPC C211 CTL2  -0.180000       12.0107           0
   27125 O1   119  DMPC H11R HAL2   0.090000        1.0079           0
   27126 O1   119  DMPC H11S HAL2   0.090000        1.0079           0
   27127 O1   119  DMPC C212 CTL2  -0.180000       12.0107           0
   27128 O1   119  DMPC H12R HAL2   0.090000        1.0079           0
   27129 O1   119  DMPC H12S HAL2   0.090000        1.0079           0
   27130 O1   119  DMPC C213 CTL2  -0.180000       12.0107           0
   27131 O1   119  DMPC H13R HAL2   0.090000        1.0079           0
   27132 O1   119  DMPC H13S HAL2   0.090000        1.0079           0
   27133 O1   119  DMPC C214 CTL3  -0.270000       12.0107           0
   27134 O1   119  DMPC H14R HAL3   0.090000        1.0079           0
   27135 O1   119  DMPC H14S HAL3   0.090000        1.0079           0
   27136 O1   119  DMPC H14T HAL3   0.090000        1.0079           0
   27137 O1   119  DMPC C33  CTL2  -0.180000       12.0107           0
   27138 O1   119  DMPC H3X  HAL2   0.090000        1.0079           0
   27139 O1   119  DMPC H3Y  HAL2   0.090000        1.0079           0
   27140 O1   119  DMPC C34  CTL2  -0.180000       12.0107           0
   27141 O1   119  DMPC H4X  HAL2   0.090000        1.0079           0
   27142 O1   119  DMPC H4Y  HAL2   0.090000        1.0079           0
   27143 O1   119  DMPC C35  CTL2  -0.180000       12.0107           0
   27144 O1   119  DMPC H5X  HAL2   0.090000        1.0079           0
   27145 O1   119  DMPC H5Y  HAL2   0.090000        1.0079           0
   27146 O1   119  DMPC C36  CTL2  -0.180000       12.0107           0
   27147 O1   119  DMPC H6X  HAL2   0.090000        1.0079           0
   27148 O1   119  DMPC H6Y  HAL2   0.090000        1.0079           0
   27149 O1   119  DMPC C37  CTL2  -0.180000       12.0107           0
   27150 O1   119  DMPC H7X  HAL2   0.090000        1.0079           0
   27151 O1   119  DMPC H7Y  HAL2   0.090000        1.0079           0
   27152 O1   119  DMPC C38  CTL2  -0.180000       12.0107           0
   27153 O1   119  DMPC H8X  HAL2   0.090000        1.0079           0
   27154 O1   119  DMPC H8Y  HAL2   0.090000        1.0079           0
   27155 O1   119  DMPC C39  CTL2  -0.180000       12.0107           0
   27156 O1   119  DMPC H9X  HAL2   0.090000        1.0079           0
   27157 O1   119  DMPC H9Y  HAL2   0.090000        1.0079           0
   27158 O1   119  DMPC C310 CTL2  -0.180000       12.0107           0
   27159 O1   119  DMPC H10X HAL2   0.090000        1.0079           0
   27160 O1   119  DMPC H10Y HAL2   0.090000        1.0079           0
   27161 O1   119  DMPC C311 CTL2  -0.180000       12.0107           0
   27162 O1   119  DMPC H11X HAL2   0.090000        1.0079           0
   27163 O1   119  DMPC H11Y HAL2   0.090000        1.0079           0
   27164 O1   119  DMPC C312 CTL2  -0.180000       12.0107           0
   27165 O1   119  DMPC H12X HAL2   0.090000        1.0079           0
   27166 O1   119  DMPC H12Y HAL2   0.090000        1.0079           0
   27167 O1   119  DMPC C313 CTL2  -0.180000       12.0107           0
   27168 O1   119  DMPC H13X HAL2   0.090000        1.0079           0
   27169 O1   119  DMPC H13Y HAL2   0.090000        1.0079           0
   27170 O1   119  DMPC C314 CTL3  -0.270000       12.0107           0
   27171 O1   119  DMPC H14X HAL3   0.090000        1.0079           0
   27172 O1   119  DMPC H14Y HAL3   0.090000        1.0079           0
   27173 O1   119  DMPC H14Z HAL3   0.090000        1.0079           0
   27174 O1   120  DMPC N    NTL   -0.600000       14.0067           0
   27175 O1   120  DMPC C13  CTL5  -0.350000       12.0107           0
   27176 O1   120  DMPC H13A HL     0.250000        1.0079           0
   27177 O1   120  DMPC H13B HL     0.250000        1.0079           0
   27178 O1   120  DMPC H13C HL     0.250000        1.0079           0
   27179 O1   120  DMPC C14  CTL5  -0.350000       12.0107           0
   27180 O1   120  DMPC H14A HL     0.250000        1.0079           0
   27181 O1   120  DMPC H14B HL     0.250000        1.0079           0
   27182 O1   120  DMPC H14C HL     0.250000        1.0079           0
   27183 O1   120  DMPC C15  CTL5  -0.350000       12.0107           0
   27184 O1   120  DMPC H15A HL     0.250000        1.0079           0
   27185 O1   120  DMPC H15B HL     0.250000        1.0079           0
   27186 O1   120  DMPC H15C HL     0.250000        1.0079           0
   27187 O1   120  DMPC C12  CTL2  -0.100000       12.0107           0
   27188 O1   120  DMPC H12A HL     0.250000        1.0079           0
   27189 O1   120  DMPC H12B HL     0.250000        1.0079           0
   27190 O1   120  DMPC C11  CTL2  -0.080000       12.0107           0
   27191 O1   120  DMPC H11A HAL2   0.090000        1.0079           0
   27192 O1   120  DMPC H11B HAL2   0.090000        1.0079           0
   27193 O1   120  DMPC P    PL     1.500000       30.9738           0
   27194 O1   120  DMPC O13  O2L   -0.780000       15.9994           0
   27195 O1   120  DMPC O14  O2L   -0.780000       15.9994           0
   27196 O1   120  DMPC O11  OSLP  -0.570000       15.9994           0
   27197 O1   120  DMPC O12  OSLP  -0.570000       15.9994           0
   27198 O1   120  DMPC C1   CTL2  -0.080000       12.0107           0
   27199 O1   120  DMPC HA   HAL2   0.090000        1.0079           0
   27200 O1   120  DMPC HB   HAL2   0.090000        1.0079           0
   27201 O1   120  DMPC C2   CTL1   0.170000       12.0107           0
   27202 O1   120  DMPC HS   HAL1   0.090000        1.0079           0
   27203 O1   120  DMPC O21  OSL   -0.490000       15.9994           0
   27204 O1   120  DMPC C21  CL     0.900000       12.0107           0
   27205 O1   120  DMPC O22  OBL   -0.630000       15.9994           0
   27206 O1   120  DMPC C22  CTL2  -0.220000       12.0107           0
   27207 O1   120  DMPC H2R  HAL2   0.090000        1.0079           0
   27208 O1   120  DMPC H2S  HAL2   0.090000        1.0079           0
   27209 O1   120  DMPC C3   CTL2   0.080000       12.0107           0
   27210 O1   120  DMPC HX   HAL2   0.090000        1.0079           0
   27211 O1   120  DMPC HY   HAL2   0.090000        1.0079           0
   27212 O1   120  DMPC O31  OSL   -0.490000       15.9994           0
   27213 O1   120  DMPC C31  CL     0.900000       12.0107           0
   27214 O1   120  DMPC O32  OBL   -0.630000       15.9994           0
   27215 O1   120  DMPC C32  CTL2  -0.220000       12.0107           0
   27216 O1   120  DMPC H2X  HAL2   0.090000        1.0079           0
   27217 O1   120  DMPC H2Y  HAL2   0.090000        1.0079           0
   27218 O1   120  DMPC C23  CTL2  -0.180000       12.0107           0
   27219 O1   120  DMPC H3R  HAL2   0.090000        1.0079           0
   27220 O1   120  DMPC H3S  HAL2   0.090000        1.0079           0
   27221 O1   120  DMPC C24  CTL2  -0.180000       12.0107           0
   27222 O1   120  DMPC H4R  HAL2   0.090000        1.0079           0
   27223 O1   120  DMPC H4S  HAL2   0.090000        1.0079           0
   27224 O1   120  DMPC C25  CTL2  -0.180000       12.0107           0
   27225 O1   120  DMPC H5R  HAL2   0.090000        1.0079           0
   27226 O1   120  DMPC H5S  HAL2   0.090000        1.0079           0
   27227 O1   120  DMPC C26  CTL2  -0.180000       12.0107           0
   27228 O1   120  DMPC H6R  HAL2   0.090000        1.0079           0
   27229 O1   120  DMPC H6S  HAL2   0.090000        1.0079           0
   27230 O1   120  DMPC C27  CTL2  -0.180000       12.0107           0
   27231 O1   120  DMPC H7R  HAL2   0.090000        1.0079           0
   27232 O1   120  DMPC H7S  HAL2   0.090000        1.0079           0
   27233 O1   120  DMPC C28  CTL2  -0.180000       12.0107           0
   27234 O1   120  DMPC H8R  HAL2   0.090000        1.0079           0
   27235 O1   120  DMPC H8S  HAL2   0.090000        1.0079           0
   27236 O1   120  DMPC C29  CTL2  -0.180000       12.0107           0
   27237 O1   120  DMPC H9R  HAL2   0.090000        1.0079           0
   27238 O1   120  DMPC H9S  HAL2   0.090000        1.0079           0
   27239 O1   120  DMPC C210 CTL2  -0.180000       12.0107           0
   27240 O1   120  DMPC H10R HAL2   0.090000        1.0079           0
   27241 O1   120  DMPC H10S HAL2   0.090000        1.0079           0
   27242 O1   120  DMPC C211 CTL2  -0.180000       12.0107           0
   27243 O1   120  DMPC H11R HAL2   0.090000        1.0079           0
   27244 O1   120  DMPC H11S HAL2   0.090000        1.0079           0
   27245 O1   120  DMPC C212 CTL2  -0.180000       12.0107           0
   27246 O1   120  DMPC H12R HAL2   0.090000        1.0079           0
   27247 O1   120  DMPC H12S HAL2   0.090000        1.0079           0
   27248 O1   120  DMPC C213 CTL2  -0.180000       12.0107           0
   27249 O1   120  DMPC H13R HAL2   0.090000        1.0079           0
   27250 O1   120  DMPC H13S HAL2   0.090000        1.0079           0
   27251 O1   120  DMPC C214 CTL3  -0.270000       12.0107           0
   27252 O1   120  DMPC H14R HAL3   0.090000        1.0079           0
   27253 O1   120  DMPC H14S HAL3   0.090000        1.0079           0
   27254 O1   120  DMPC H14T HAL3   0.090000        1.0079           0
   27255 O1   120  DMPC C33  CTL2  -0.180000       12.0107           0
   27256 O1   120  DMPC H3X  HAL2   0.090000        1.0079           0
   27257 O1   120  DMPC H3Y  HAL2   0.090000        1.0079           0
   27258 O1   120  DMPC C34  CTL2  -0.180000       12.0107           0
   27259 O1   120  DMPC H4X  HAL2   0.090000        1.0079           0
   27260 O1   120  DMPC H4Y  HAL2   0.090000        1.0079           0
   27261 O1   120  DMPC C35  CTL2  -0.180000       12.0107           0
   27262 O1   120  DMPC H5X  HAL2   0.090000        1.0079           0
   27263 O1   120  DMPC H5Y  HAL2   0.090000        1.0079           0
   27264 O1   120  DMPC C36  CTL2  -0.180000       12.0107           0
   27265 O1   120  DMPC H6X  HAL2   0.090000        1.0079           0
   27266 O1   120  DMPC H6Y  HAL2   0.090000        1.0079           0
   27267 O1   120  DMPC C37  CTL2  -0.180000       12.0107           0
   27268 O1   120  DMPC H7X  HAL2   0.090000        1.0079           0
   27269 O1   120  DMPC H7Y  HAL2   0.090000        1.0079           0
   27270 O1   120  DMPC C38  CTL2  -0.180000       12.0107           0
   27271 O1   120  DMPC H8X  HAL2   0.090000        1.0079           0
   27272 O1   120  DMPC H8Y  HAL2   0.090000        1.0079           0
   27273 O1   120  DMPC C39  CTL2  -0.180000       12.0107           0
   27274 O1   120  DMPC H9X  HAL2   0.090000        1.0079           0
   27275 O1   120  DMPC H9Y  HAL2   0.090000        1.0079           0
   27276 O1   120  DMPC C310 CTL2  -0.180000       12.0107           0
   27277 O1   120  DMPC H10X HAL2   0.090000        1.0079           0
   27278 O1   120  DMPC H10Y HAL2   0.090000        1.0079           0
   27279 O1   120  DMPC C311 CTL2  -0.180000       12.0107           0
   27280 O1   120  DMPC H11X HAL2   0.090000        1.0079           0
   27281 O1   120  DMPC H11Y HAL2   0.090000        1.0079           0
   27282 O1   120  DMPC C312 CTL2  -0.180000       12.0107           0
   27283 O1   120  DMPC H12X HAL2   0.090000        1.0079           0
   27284 O1   120  DMPC H12Y HAL2   0.090000        1.0079           0
   27285 O1   120  DMPC C313 CTL2  -0.180000       12.0107           0
   27286 O1   120  DMPC H13X HAL2   0.090000        1.0079           0
   27287 O1   120  DMPC H13Y HAL2   0.090000        1.0079           0
   27288 O1   120  DMPC C314 CTL3  -0.270000       12.0107           0
   27289 O1   120  DMPC H14X HAL3   0.090000        1.0079           0
   27290 O1   120  DMPC H14Y HAL3   0.090000        1.0079           0
   27291 O1   120  DMPC H14Z HAL3   0.090000        1.0079           0
   27292 O1   121  DMPC N    NTL   -0.600000       14.0067           0
   27293 O1   121  DMPC C13  CTL5  -0.350000       12.0107           0
   27294 O1   121  DMPC H13A HL     0.250000        1.0079           0
   27295 O1   121  DMPC H13B HL     0.250000        1.0079           0
   27296 O1   121  DMPC H13C HL     0.250000        1.0079           0
   27297 O1   121  DMPC C14  CTL5  -0.350000       12.0107           0
   27298 O1   121  DMPC H14A HL     0.250000        1.0079           0
   27299 O1   121  DMPC H14B HL     0.250000        1.0079           0
   27300 O1   121  DMPC H14C HL     0.250000        1.0079           0
   27301 O1   121  DMPC C15  CTL5  -0.350000       12.0107           0
   27302 O1   121  DMPC H15A HL     0.250000        1.0079           0
   27303 O1   121  DMPC H15B HL     0.250000        1.0079           0
   27304 O1   121  DMPC H15C HL     0.250000        1.0079           0
   27305 O1   121  DMPC C12  CTL2  -0.100000       12.0107           0
   27306 O1   121  DMPC H12A HL     0.250000        1.0079           0
   27307 O1   121  DMPC H12B HL     0.250000        1.0079           0
   27308 O1   121  DMPC C11  CTL2  -0.080000       12.0107           0
   27309 O1   121  DMPC H11A HAL2   0.090000        1.0079           0
   27310 O1   121  DMPC H11B HAL2   0.090000        1.0079           0
   27311 O1   121  DMPC P    PL     1.500000       30.9738           0
   27312 O1   121  DMPC O13  O2L   -0.780000       15.9994           0
   27313 O1   121  DMPC O14  O2L   -0.780000       15.9994           0
   27314 O1   121  DMPC O11  OSLP  -0.570000       15.9994           0
   27315 O1   121  DMPC O12  OSLP  -0.570000       15.9994           0
   27316 O1   121  DMPC C1   CTL2  -0.080000       12.0107           0
   27317 O1   121  DMPC HA   HAL2   0.090000        1.0079           0
   27318 O1   121  DMPC HB   HAL2   0.090000        1.0079           0
   27319 O1   121  DMPC C2   CTL1   0.170000       12.0107           0
   27320 O1   121  DMPC HS   HAL1   0.090000        1.0079           0
   27321 O1   121  DMPC O21  OSL   -0.490000       15.9994           0
   27322 O1   121  DMPC C21  CL     0.900000       12.0107           0
   27323 O1   121  DMPC O22  OBL   -0.630000       15.9994           0
   27324 O1   121  DMPC C22  CTL2  -0.220000       12.0107           0
   27325 O1   121  DMPC H2R  HAL2   0.090000        1.0079           0
   27326 O1   121  DMPC H2S  HAL2   0.090000        1.0079           0
   27327 O1   121  DMPC C3   CTL2   0.080000       12.0107           0
   27328 O1   121  DMPC HX   HAL2   0.090000        1.0079           0
   27329 O1   121  DMPC HY   HAL2   0.090000        1.0079           0
   27330 O1   121  DMPC O31  OSL   -0.490000       15.9994           0
   27331 O1   121  DMPC C31  CL     0.900000       12.0107           0
   27332 O1   121  DMPC O32  OBL   -0.630000       15.9994           0
   27333 O1   121  DMPC C32  CTL2  -0.220000       12.0107           0
   27334 O1   121  DMPC H2X  HAL2   0.090000        1.0079           0
   27335 O1   121  DMPC H2Y  HAL2   0.090000        1.0079           0
   27336 O1   121  DMPC C23  CTL2  -0.180000       12.0107           0
   27337 O1   121  DMPC H3R  HAL2   0.090000        1.0079           0
   27338 O1   121  DMPC H3S  HAL2   0.090000        1.0079           0
   27339 O1   121  DMPC C24  CTL2  -0.180000       12.0107           0
   27340 O1   121  DMPC H4R  HAL2   0.090000        1.0079           0
   27341 O1   121  DMPC H4S  HAL2   0.090000        1.0079           0
   27342 O1   121  DMPC C25  CTL2  -0.180000       12.0107           0
   27343 O1   121  DMPC H5R  HAL2   0.090000        1.0079           0
   27344 O1   121  DMPC H5S  HAL2   0.090000        1.0079           0
   27345 O1   121  DMPC C26  CTL2  -0.180000       12.0107           0
   27346 O1   121  DMPC H6R  HAL2   0.090000        1.0079           0
   27347 O1   121  DMPC H6S  HAL2   0.090000        1.0079           0
   27348 O1   121  DMPC C27  CTL2  -0.180000       12.0107           0
   27349 O1   121  DMPC H7R  HAL2   0.090000        1.0079           0
   27350 O1   121  DMPC H7S  HAL2   0.090000        1.0079           0
   27351 O1   121  DMPC C28  CTL2  -0.180000       12.0107           0
   27352 O1   121  DMPC H8R  HAL2   0.090000        1.0079           0
   27353 O1   121  DMPC H8S  HAL2   0.090000        1.0079           0
   27354 O1   121  DMPC C29  CTL2  -0.180000       12.0107           0
   27355 O1   121  DMPC H9R  HAL2   0.090000        1.0079           0
   27356 O1   121  DMPC H9S  HAL2   0.090000        1.0079           0
   27357 O1   121  DMPC C210 CTL2  -0.180000       12.0107           0
   27358 O1   121  DMPC H10R HAL2   0.090000        1.0079           0
   27359 O1   121  DMPC H10S HAL2   0.090000        1.0079           0
   27360 O1   121  DMPC C211 CTL2  -0.180000       12.0107           0
   27361 O1   121  DMPC H11R HAL2   0.090000        1.0079           0
   27362 O1   121  DMPC H11S HAL2   0.090000        1.0079           0
   27363 O1   121  DMPC C212 CTL2  -0.180000       12.0107           0
   27364 O1   121  DMPC H12R HAL2   0.090000        1.0079           0
   27365 O1   121  DMPC H12S HAL2   0.090000        1.0079           0
   27366 O1   121  DMPC C213 CTL2  -0.180000       12.0107           0
   27367 O1   121  DMPC H13R HAL2   0.090000        1.0079           0
   27368 O1   121  DMPC H13S HAL2   0.090000        1.0079           0
   27369 O1   121  DMPC C214 CTL3  -0.270000       12.0107           0
   27370 O1   121  DMPC H14R HAL3   0.090000        1.0079           0
   27371 O1   121  DMPC H14S HAL3   0.090000        1.0079           0
   27372 O1   121  DMPC H14T HAL3   0.090000        1.0079           0
   27373 O1   121  DMPC C33  CTL2  -0.180000       12.0107           0
   27374 O1   121  DMPC H3X  HAL2   0.090000        1.0079           0
   27375 O1   121  DMPC H3Y  HAL2   0.090000        1.0079           0
   27376 O1   121  DMPC C34  CTL2  -0.180000       12.0107           0
   27377 O1   121  DMPC H4X  HAL2   0.090000        1.0079           0
   27378 O1   121  DMPC H4Y  HAL2   0.090000        1.0079           0
   27379 O1   121  DMPC C35  CTL2  -0.180000       12.0107           0
   27380 O1   121  DMPC H5X  HAL2   0.090000        1.0079           0
   27381 O1   121  DMPC H5Y  HAL2   0.090000        1.0079           0
   27382 O1   121  DMPC C36  CTL2  -0.180000       12.0107           0
   27383 O1   121  DMPC H6X  HAL2   0.090000        1.0079           0
   27384 O1   121  DMPC H6Y  HAL2   0.090000        1.0079           0
   27385 O1   121  DMPC C37  CTL2  -0.180000       12.0107           0
   27386 O1   121  DMPC H7X  HAL2   0.090000        1.0079           0
   27387 O1   121  DMPC H7Y  HAL2   0.090000        1.0079           0
   27388 O1   121  DMPC C38  CTL2  -0.180000       12.0107           0
   27389 O1   121  DMPC H8X  HAL2   0.090000        1.0079           0
   27390 O1   121  DMPC H8Y  HAL2   0.090000        1.0079           0
   27391 O1   121  DMPC C39  CTL2  -0.180000       12.0107           0
   27392 O1   121  DMPC H9X  HAL2   0.090000        1.0079           0
   27393 O1   121  DMPC H9Y  HAL2   0.090000        1.0079           0
   27394 O1   121  DMPC C310 CTL2  -0.180000       12.0107           0
   27395 O1   121  DMPC H10X HAL2   0.090000        1.0079           0
   27396 O1   121  DMPC H10Y HAL2   0.090000        1.0079           0
   27397 O1   121  DMPC C311 CTL2  -0.180000       12.0107           0
   27398 O1   121  DMPC H11X HAL2   0.090000        1.0079           0
   27399 O1   121  DMPC H11Y HAL2   0.090000        1.0079           0
   27400 O1   121  DMPC C312 CTL2  -0.180000       12.0107           0
   27401 O1   121  DMPC H12X HAL2   0.090000        1.0079           0
   27402 O1   121  DMPC H12Y HAL2   0.090000        1.0079           0
   27403 O1   121  DMPC C313 CTL2  -0.180000       12.0107           0
   27404 O1   121  DMPC H13X HAL2   0.090000        1.0079           0
   27405 O1   121  DMPC H13Y HAL2   0.090000        1.0079           0
   27406 O1   121  DMPC C314 CTL3  -0.270000       12.0107           0
   27407 O1   121  DMPC H14X HAL3   0.090000        1.0079           0
   27408 O1   121  DMPC H14Y HAL3   0.090000        1.0079           0
   27409 O1   121  DMPC H14Z HAL3   0.090000        1.0079           0
   27410 O1   122  DMPC N    NTL   -0.600000       14.0067           0
   27411 O1   122  DMPC C13  CTL5  -0.350000       12.0107           0
   27412 O1   122  DMPC H13A HL     0.250000        1.0079           0
   27413 O1   122  DMPC H13B HL     0.250000        1.0079           0
   27414 O1   122  DMPC H13C HL     0.250000        1.0079           0
   27415 O1   122  DMPC C14  CTL5  -0.350000       12.0107           0
   27416 O1   122  DMPC H14A HL     0.250000        1.0079           0
   27417 O1   122  DMPC H14B HL     0.250000        1.0079           0
   27418 O1   122  DMPC H14C HL     0.250000        1.0079           0
   27419 O1   122  DMPC C15  CTL5  -0.350000       12.0107           0
   27420 O1   122  DMPC H15A HL     0.250000        1.0079           0
   27421 O1   122  DMPC H15B HL     0.250000        1.0079           0
   27422 O1   122  DMPC H15C HL     0.250000        1.0079           0
   27423 O1   122  DMPC C12  CTL2  -0.100000       12.0107           0
   27424 O1   122  DMPC H12A HL     0.250000        1.0079           0
   27425 O1   122  DMPC H12B HL     0.250000        1.0079           0
   27426 O1   122  DMPC C11  CTL2  -0.080000       12.0107           0
   27427 O1   122  DMPC H11A HAL2   0.090000        1.0079           0
   27428 O1   122  DMPC H11B HAL2   0.090000        1.0079           0
   27429 O1   122  DMPC P    PL     1.500000       30.9738           0
   27430 O1   122  DMPC O13  O2L   -0.780000       15.9994           0
   27431 O1   122  DMPC O14  O2L   -0.780000       15.9994           0
   27432 O1   122  DMPC O11  OSLP  -0.570000       15.9994           0
   27433 O1   122  DMPC O12  OSLP  -0.570000       15.9994           0
   27434 O1   122  DMPC C1   CTL2  -0.080000       12.0107           0
   27435 O1   122  DMPC HA   HAL2   0.090000        1.0079           0
   27436 O1   122  DMPC HB   HAL2   0.090000        1.0079           0
   27437 O1   122  DMPC C2   CTL1   0.170000       12.0107           0
   27438 O1   122  DMPC HS   HAL1   0.090000        1.0079           0
   27439 O1   122  DMPC O21  OSL   -0.490000       15.9994           0
   27440 O1   122  DMPC C21  CL     0.900000       12.0107           0
   27441 O1   122  DMPC O22  OBL   -0.630000       15.9994           0
   27442 O1   122  DMPC C22  CTL2  -0.220000       12.0107           0
   27443 O1   122  DMPC H2R  HAL2   0.090000        1.0079           0
   27444 O1   122  DMPC H2S  HAL2   0.090000        1.0079           0
   27445 O1   122  DMPC C3   CTL2   0.080000       12.0107           0
   27446 O1   122  DMPC HX   HAL2   0.090000        1.0079           0
   27447 O1   122  DMPC HY   HAL2   0.090000        1.0079           0
   27448 O1   122  DMPC O31  OSL   -0.490000       15.9994           0
   27449 O1   122  DMPC C31  CL     0.900000       12.0107           0
   27450 O1   122  DMPC O32  OBL   -0.630000       15.9994           0
   27451 O1   122  DMPC C32  CTL2  -0.220000       12.0107           0
   27452 O1   122  DMPC H2X  HAL2   0.090000        1.0079           0
   27453 O1   122  DMPC H2Y  HAL2   0.090000        1.0079           0
   27454 O1   122  DMPC C23  CTL2  -0.180000       12.0107           0
   27455 O1   122  DMPC H3R  HAL2   0.090000        1.0079           0
   27456 O1   122  DMPC H3S  HAL2   0.090000        1.0079           0
   27457 O1   122  DMPC C24  CTL2  -0.180000       12.0107           0
   27458 O1   122  DMPC H4R  HAL2   0.090000        1.0079           0
   27459 O1   122  DMPC H4S  HAL2   0.090000        1.0079           0
   27460 O1   122  DMPC C25  CTL2  -0.180000       12.0107           0
   27461 O1   122  DMPC H5R  HAL2   0.090000        1.0079           0
   27462 O1   122  DMPC H5S  HAL2   0.090000        1.0079           0
   27463 O1   122  DMPC C26  CTL2  -0.180000       12.0107           0
   27464 O1   122  DMPC H6R  HAL2   0.090000        1.0079           0
   27465 O1   122  DMPC H6S  HAL2   0.090000        1.0079           0
   27466 O1   122  DMPC C27  CTL2  -0.180000       12.0107           0
   27467 O1   122  DMPC H7R  HAL2   0.090000        1.0079           0
   27468 O1   122  DMPC H7S  HAL2   0.090000        1.0079           0
   27469 O1   122  DMPC C28  CTL2  -0.180000       12.0107           0
   27470 O1   122  DMPC H8R  HAL2   0.090000        1.0079           0
   27471 O1   122  DMPC H8S  HAL2   0.090000        1.0079           0
   27472 O1   122  DMPC C29  CTL2  -0.180000       12.0107           0
   27473 O1   122  DMPC H9R  HAL2   0.090000        1.0079           0
   27474 O1   122  DMPC H9S  HAL2   0.090000        1.0079           0
   27475 O1   122  DMPC C210 CTL2  -0.180000       12.0107           0
   27476 O1   122  DMPC H10R HAL2   0.090000        1.0079           0
   27477 O1   122  DMPC H10S HAL2   0.090000        1.0079           0
   27478 O1   122  DMPC C211 CTL2  -0.180000       12.0107           0
   27479 O1   122  DMPC H11R HAL2   0.090000        1.0079           0
   27480 O1   122  DMPC H11S HAL2   0.090000        1.0079           0
   27481 O1   122  DMPC C212 CTL2  -0.180000       12.0107           0
   27482 O1   122  DMPC H12R HAL2   0.090000        1.0079           0
   27483 O1   122  DMPC H12S HAL2   0.090000        1.0079           0
   27484 O1   122  DMPC C213 CTL2  -0.180000       12.0107           0
   27485 O1   122  DMPC H13R HAL2   0.090000        1.0079           0
   27486 O1   122  DMPC H13S HAL2   0.090000        1.0079           0
   27487 O1   122  DMPC C214 CTL3  -0.270000       12.0107           0
   27488 O1   122  DMPC H14R HAL3   0.090000        1.0079           0
   27489 O1   122  DMPC H14S HAL3   0.090000        1.0079           0
   27490 O1   122  DMPC H14T HAL3   0.090000        1.0079           0
   27491 O1   122  DMPC C33  CTL2  -0.180000       12.0107           0
   27492 O1   122  DMPC H3X  HAL2   0.090000        1.0079           0
   27493 O1   122  DMPC H3Y  HAL2   0.090000        1.0079           0
   27494 O1   122  DMPC C34  CTL2  -0.180000       12.0107           0
   27495 O1   122  DMPC H4X  HAL2   0.090000        1.0079           0
   27496 O1   122  DMPC H4Y  HAL2   0.090000        1.0079           0
   27497 O1   122  DMPC C35  CTL2  -0.180000       12.0107           0
   27498 O1   122  DMPC H5X  HAL2   0.090000        1.0079           0
   27499 O1   122  DMPC H5Y  HAL2   0.090000        1.0079           0
   27500 O1   122  DMPC C36  CTL2  -0.180000       12.0107           0
   27501 O1   122  DMPC H6X  HAL2   0.090000        1.0079           0
   27502 O1   122  DMPC H6Y  HAL2   0.090000        1.0079           0
   27503 O1   122  DMPC C37  CTL2  -0.180000       12.0107           0
   27504 O1   122  DMPC H7X  HAL2   0.090000        1.0079           0
   27505 O1   122  DMPC H7Y  HAL2   0.090000        1.0079           0
   27506 O1   122  DMPC C38  CTL2  -0.180000       12.0107           0
   27507 O1   122  DMPC H8X  HAL2   0.090000        1.0079           0
   27508 O1   122  DMPC H8Y  HAL2   0.090000        1.0079           0
   27509 O1   122  DMPC C39  CTL2  -0.180000       12.0107           0
   27510 O1   122  DMPC H9X  HAL2   0.090000        1.0079           0
   27511 O1   122  DMPC H9Y  HAL2   0.090000        1.0079           0
   27512 O1   122  DMPC C310 CTL2  -0.180000       12.0107           0
   27513 O1   122  DMPC H10X HAL2   0.090000        1.0079           0
   27514 O1   122  DMPC H10Y HAL2   0.090000        1.0079           0
   27515 O1   122  DMPC C311 CTL2  -0.180000       12.0107           0
   27516 O1   122  DMPC H11X HAL2   0.090000        1.0079           0
   27517 O1   122  DMPC H11Y HAL2   0.090000        1.0079           0
   27518 O1   122  DMPC C312 CTL2  -0.180000       12.0107           0
   27519 O1   122  DMPC H12X HAL2   0.090000        1.0079           0
   27520 O1   122  DMPC H12Y HAL2   0.090000        1.0079           0
   27521 O1   122  DMPC C313 CTL2  -0.180000       12.0107           0
   27522 O1   122  DMPC H13X HAL2   0.090000        1.0079           0
   27523 O1   122  DMPC H13Y HAL2   0.090000        1.0079           0
   27524 O1   122  DMPC C314 CTL3  -0.270000       12.0107           0
   27525 O1   122  DMPC H14X HAL3   0.090000        1.0079           0
   27526 O1   122  DMPC H14Y HAL3   0.090000        1.0079           0
   27527 O1   122  DMPC H14Z HAL3   0.090000        1.0079           0
   27528 O1   123  DMPC N    NTL   -0.600000       14.0067           0
   27529 O1   123  DMPC C13  CTL5  -0.350000       12.0107           0
   27530 O1   123  DMPC H13A HL     0.250000        1.0079           0
   27531 O1   123  DMPC H13B HL     0.250000        1.0079           0
   27532 O1   123  DMPC H13C HL     0.250000        1.0079           0
   27533 O1   123  DMPC C14  CTL5  -0.350000       12.0107           0
   27534 O1   123  DMPC H14A HL     0.250000        1.0079           0
   27535 O1   123  DMPC H14B HL     0.250000        1.0079           0
   27536 O1   123  DMPC H14C HL     0.250000        1.0079           0
   27537 O1   123  DMPC C15  CTL5  -0.350000       12.0107           0
   27538 O1   123  DMPC H15A HL     0.250000        1.0079           0
   27539 O1   123  DMPC H15B HL     0.250000        1.0079           0
   27540 O1   123  DMPC H15C HL     0.250000        1.0079           0
   27541 O1   123  DMPC C12  CTL2  -0.100000       12.0107           0
   27542 O1   123  DMPC H12A HL     0.250000        1.0079           0
   27543 O1   123  DMPC H12B HL     0.250000        1.0079           0
   27544 O1   123  DMPC C11  CTL2  -0.080000       12.0107           0
   27545 O1   123  DMPC H11A HAL2   0.090000        1.0079           0
   27546 O1   123  DMPC H11B HAL2   0.090000        1.0079           0
   27547 O1   123  DMPC P    PL     1.500000       30.9738           0
   27548 O1   123  DMPC O13  O2L   -0.780000       15.9994           0
   27549 O1   123  DMPC O14  O2L   -0.780000       15.9994           0
   27550 O1   123  DMPC O11  OSLP  -0.570000       15.9994           0
   27551 O1   123  DMPC O12  OSLP  -0.570000       15.9994           0
   27552 O1   123  DMPC C1   CTL2  -0.080000       12.0107           0
   27553 O1   123  DMPC HA   HAL2   0.090000        1.0079           0
   27554 O1   123  DMPC HB   HAL2   0.090000        1.0079           0
   27555 O1   123  DMPC C2   CTL1   0.170000       12.0107           0
   27556 O1   123  DMPC HS   HAL1   0.090000        1.0079           0
   27557 O1   123  DMPC O21  OSL   -0.490000       15.9994           0
   27558 O1   123  DMPC C21  CL     0.900000       12.0107           0
   27559 O1   123  DMPC O22  OBL   -0.630000       15.9994           0
   27560 O1   123  DMPC C22  CTL2  -0.220000       12.0107           0
   27561 O1   123  DMPC H2R  HAL2   0.090000        1.0079           0
   27562 O1   123  DMPC H2S  HAL2   0.090000        1.0079           0
   27563 O1   123  DMPC C3   CTL2   0.080000       12.0107           0
   27564 O1   123  DMPC HX   HAL2   0.090000        1.0079           0
   27565 O1   123  DMPC HY   HAL2   0.090000        1.0079           0
   27566 O1   123  DMPC O31  OSL   -0.490000       15.9994           0
   27567 O1   123  DMPC C31  CL     0.900000       12.0107           0
   27568 O1   123  DMPC O32  OBL   -0.630000       15.9994           0
   27569 O1   123  DMPC C32  CTL2  -0.220000       12.0107           0
   27570 O1   123  DMPC H2X  HAL2   0.090000        1.0079           0
   27571 O1   123  DMPC H2Y  HAL2   0.090000        1.0079           0
   27572 O1   123  DMPC C23  CTL2  -0.180000       12.0107           0
   27573 O1   123  DMPC H3R  HAL2   0.090000        1.0079           0
   27574 O1   123  DMPC H3S  HAL2   0.090000        1.0079           0
   27575 O1   123  DMPC C24  CTL2  -0.180000       12.0107           0
   27576 O1   123  DMPC H4R  HAL2   0.090000        1.0079           0
   27577 O1   123  DMPC H4S  HAL2   0.090000        1.0079           0
   27578 O1   123  DMPC C25  CTL2  -0.180000       12.0107           0
   27579 O1   123  DMPC H5R  HAL2   0.090000        1.0079           0
   27580 O1   123  DMPC H5S  HAL2   0.090000        1.0079           0
   27581 O1   123  DMPC C26  CTL2  -0.180000       12.0107           0
   27582 O1   123  DMPC H6R  HAL2   0.090000        1.0079           0
   27583 O1   123  DMPC H6S  HAL2   0.090000        1.0079           0
   27584 O1   123  DMPC C27  CTL2  -0.180000       12.0107           0
   27585 O1   123  DMPC H7R  HAL2   0.090000        1.0079           0
   27586 O1   123  DMPC H7S  HAL2   0.090000        1.0079           0
   27587 O1   123  DMPC C28  CTL2  -0.180000       12.0107           0
   27588 O1   123  DMPC H8R  HAL2   0.090000        1.0079           0
   27589 O1   123  DMPC H8S  HAL2   0.090000        1.0079           0
   27590 O1   123  DMPC C29  CTL2  -0.180000       12.0107           0
   27591 O1   123  DMPC H9R  HAL2   0.090000        1.0079           0
   27592 O1   123  DMPC H9S  HAL2   0.090000        1.0079           0
   27593 O1   123  DMPC C210 CTL2  -0.180000       12.0107           0
   27594 O1   123  DMPC H10R HAL2   0.090000        1.0079           0
   27595 O1   123  DMPC H10S HAL2   0.090000        1.0079           0
   27596 O1   123  DMPC C211 CTL2  -0.180000       12.0107           0
   27597 O1   123  DMPC H11R HAL2   0.090000        1.0079           0
   27598 O1   123  DMPC H11S HAL2   0.090000        1.0079           0
   27599 O1   123  DMPC C212 CTL2  -0.180000       12.0107           0
   27600 O1   123  DMPC H12R HAL2   0.090000        1.0079           0
   27601 O1   123  DMPC H12S HAL2   0.090000        1.0079           0
   27602 O1   123  DMPC C213 CTL2  -0.180000       12.0107           0
   27603 O1   123  DMPC H13R HAL2   0.090000        1.0079           0
   27604 O1   123  DMPC H13S HAL2   0.090000        1.0079           0
   27605 O1   123  DMPC C214 CTL3  -0.270000       12.0107           0
   27606 O1   123  DMPC H14R HAL3   0.090000        1.0079           0
   27607 O1   123  DMPC H14S HAL3   0.090000        1.0079           0
   27608 O1   123  DMPC H14T HAL3   0.090000        1.0079           0
   27609 O1   123  DMPC C33  CTL2  -0.180000       12.0107           0
   27610 O1   123  DMPC H3X  HAL2   0.090000        1.0079           0
   27611 O1   123  DMPC H3Y  HAL2   0.090000        1.0079           0
   27612 O1   123  DMPC C34  CTL2  -0.180000       12.0107           0
   27613 O1   123  DMPC H4X  HAL2   0.090000        1.0079           0
   27614 O1   123  DMPC H4Y  HAL2   0.090000        1.0079           0
   27615 O1   123  DMPC C35  CTL2  -0.180000       12.0107           0
   27616 O1   123  DMPC H5X  HAL2   0.090000        1.0079           0
   27617 O1   123  DMPC H5Y  HAL2   0.090000        1.0079           0
   27618 O1   123  DMPC C36  CTL2  -0.180000       12.0107           0
   27619 O1   123  DMPC H6X  HAL2   0.090000        1.0079           0
   27620 O1   123  DMPC H6Y  HAL2   0.090000        1.0079           0
   27621 O1   123  DMPC C37  CTL2  -0.180000       12.0107           0
   27622 O1   123  DMPC H7X  HAL2   0.090000        1.0079           0
   27623 O1   123  DMPC H7Y  HAL2   0.090000        1.0079           0
   27624 O1   123  DMPC C38  CTL2  -0.180000       12.0107           0
   27625 O1   123  DMPC H8X  HAL2   0.090000        1.0079           0
   27626 O1   123  DMPC H8Y  HAL2   0.090000        1.0079           0
   27627 O1   123  DMPC C39  CTL2  -0.180000       12.0107           0
   27628 O1   123  DMPC H9X  HAL2   0.090000        1.0079           0
   27629 O1   123  DMPC H9Y  HAL2   0.090000        1.0079           0
   27630 O1   123  DMPC C310 CTL2  -0.180000       12.0107           0
   27631 O1   123  DMPC H10X HAL2   0.090000        1.0079           0
   27632 O1   123  DMPC H10Y HAL2   0.090000        1.0079           0
   27633 O1   123  DMPC C311 CTL2  -0.180000       12.0107           0
   27634 O1   123  DMPC H11X HAL2   0.090000        1.0079           0
   27635 O1   123  DMPC H11Y HAL2   0.090000        1.0079           0
   27636 O1   123  DMPC C312 CTL2  -0.180000       12.0107           0
   27637 O1   123  DMPC H12X HAL2   0.090000        1.0079           0
   27638 O1   123  DMPC H12Y HAL2   0.090000        1.0079           0
   27639 O1   123  DMPC C313 CTL2  -0.180000       12.0107           0
   27640 O1   123  DMPC H13X HAL2   0.090000        1.0079           0
   27641 O1   123  DMPC H13Y HAL2   0.090000        1.0079           0
   27642 O1   123  DMPC C314 CTL3  -0.270000       12.0107           0
   27643 O1   123  DMPC H14X HAL3   0.090000        1.0079           0
   27644 O1   123  DMPC H14Y HAL3   0.090000        1.0079           0
   27645 O1   123  DMPC H14Z HAL3   0.090000        1.0079           0
   27646 O1   124  DMPC N    NTL   -0.600000       14.0067           0
   27647 O1   124  DMPC C13  CTL5  -0.350000       12.0107           0
   27648 O1   124  DMPC H13A HL     0.250000        1.0079           0
   27649 O1   124  DMPC H13B HL     0.250000        1.0079           0
   27650 O1   124  DMPC H13C HL     0.250000        1.0079           0
   27651 O1   124  DMPC C14  CTL5  -0.350000       12.0107           0
   27652 O1   124  DMPC H14A HL     0.250000        1.0079           0
   27653 O1   124  DMPC H14B HL     0.250000        1.0079           0
   27654 O1   124  DMPC H14C HL     0.250000        1.0079           0
   27655 O1   124  DMPC C15  CTL5  -0.350000       12.0107           0
   27656 O1   124  DMPC H15A HL     0.250000        1.0079           0
   27657 O1   124  DMPC H15B HL     0.250000        1.0079           0
   27658 O1   124  DMPC H15C HL     0.250000        1.0079           0
   27659 O1   124  DMPC C12  CTL2  -0.100000       12.0107           0
   27660 O1   124  DMPC H12A HL     0.250000        1.0079           0
   27661 O1   124  DMPC H12B HL     0.250000        1.0079           0
   27662 O1   124  DMPC C11  CTL2  -0.080000       12.0107           0
   27663 O1   124  DMPC H11A HAL2   0.090000        1.0079           0
   27664 O1   124  DMPC H11B HAL2   0.090000        1.0079           0
   27665 O1   124  DMPC P    PL     1.500000       30.9738           0
   27666 O1   124  DMPC O13  O2L   -0.780000       15.9994           0
   27667 O1   124  DMPC O14  O2L   -0.780000       15.9994           0
   27668 O1   124  DMPC O11  OSLP  -0.570000       15.9994           0
   27669 O1   124  DMPC O12  OSLP  -0.570000       15.9994           0
   27670 O1   124  DMPC C1   CTL2  -0.080000       12.0107           0
   27671 O1   124  DMPC HA   HAL2   0.090000        1.0079           0
   27672 O1   124  DMPC HB   HAL2   0.090000        1.0079           0
   27673 O1   124  DMPC C2   CTL1   0.170000       12.0107           0
   27674 O1   124  DMPC HS   HAL1   0.090000        1.0079           0
   27675 O1   124  DMPC O21  OSL   -0.490000       15.9994           0
   27676 O1   124  DMPC C21  CL     0.900000       12.0107           0
   27677 O1   124  DMPC O22  OBL   -0.630000       15.9994           0
   27678 O1   124  DMPC C22  CTL2  -0.220000       12.0107           0
   27679 O1   124  DMPC H2R  HAL2   0.090000        1.0079           0
   27680 O1   124  DMPC H2S  HAL2   0.090000        1.0079           0
   27681 O1   124  DMPC C3   CTL2   0.080000       12.0107           0
   27682 O1   124  DMPC HX   HAL2   0.090000        1.0079           0
   27683 O1   124  DMPC HY   HAL2   0.090000        1.0079           0
   27684 O1   124  DMPC O31  OSL   -0.490000       15.9994           0
   27685 O1   124  DMPC C31  CL     0.900000       12.0107           0
   27686 O1   124  DMPC O32  OBL   -0.630000       15.9994           0
   27687 O1   124  DMPC C32  CTL2  -0.220000       12.0107           0
   27688 O1   124  DMPC H2X  HAL2   0.090000        1.0079           0
   27689 O1   124  DMPC H2Y  HAL2   0.090000        1.0079           0
   27690 O1   124  DMPC C23  CTL2  -0.180000       12.0107           0
   27691 O1   124  DMPC H3R  HAL2   0.090000        1.0079           0
   27692 O1   124  DMPC H3S  HAL2   0.090000        1.0079           0
   27693 O1   124  DMPC C24  CTL2  -0.180000       12.0107           0
   27694 O1   124  DMPC H4R  HAL2   0.090000        1.0079           0
   27695 O1   124  DMPC H4S  HAL2   0.090000        1.0079           0
   27696 O1   124  DMPC C25  CTL2  -0.180000       12.0107           0
   27697 O1   124  DMPC H5R  HAL2   0.090000        1.0079           0
   27698 O1   124  DMPC H5S  HAL2   0.090000        1.0079           0
   27699 O1   124  DMPC C26  CTL2  -0.180000       12.0107           0
   27700 O1   124  DMPC H6R  HAL2   0.090000        1.0079           0
   27701 O1   124  DMPC H6S  HAL2   0.090000        1.0079           0
   27702 O1   124  DMPC C27  CTL2  -0.180000       12.0107           0
   27703 O1   124  DMPC H7R  HAL2   0.090000        1.0079           0
   27704 O1   124  DMPC H7S  HAL2   0.090000        1.0079           0
   27705 O1   124  DMPC C28  CTL2  -0.180000       12.0107           0
   27706 O1   124  DMPC H8R  HAL2   0.090000        1.0079           0
   27707 O1   124  DMPC H8S  HAL2   0.090000        1.0079           0
   27708 O1   124  DMPC C29  CTL2  -0.180000       12.0107           0
   27709 O1   124  DMPC H9R  HAL2   0.090000        1.0079           0
   27710 O1   124  DMPC H9S  HAL2   0.090000        1.0079           0
   27711 O1   124  DMPC C210 CTL2  -0.180000       12.0107           0
   27712 O1   124  DMPC H10R HAL2   0.090000        1.0079           0
   27713 O1   124  DMPC H10S HAL2   0.090000        1.0079           0
   27714 O1   124  DMPC C211 CTL2  -0.180000       12.0107           0
   27715 O1   124  DMPC H11R HAL2   0.090000        1.0079           0
   27716 O1   124  DMPC H11S HAL2   0.090000        1.0079           0
   27717 O1   124  DMPC C212 CTL2  -0.180000       12.0107           0
   27718 O1   124  DMPC H12R HAL2   0.090000        1.0079           0
   27719 O1   124  DMPC H12S HAL2   0.090000        1.0079           0
   27720 O1   124  DMPC C213 CTL2  -0.180000       12.0107           0
   27721 O1   124  DMPC H13R HAL2   0.090000        1.0079           0
   27722 O1   124  DMPC H13S HAL2   0.090000        1.0079           0
   27723 O1   124  DMPC C214 CTL3  -0.270000       12.0107           0
   27724 O1   124  DMPC H14R HAL3   0.090000        1.0079           0
   27725 O1   124  DMPC H14S HAL3   0.090000        1.0079           0
   27726 O1   124  DMPC H14T HAL3   0.090000        1.0079           0
   27727 O1   124  DMPC C33  CTL2  -0.180000       12.0107           0
   27728 O1   124  DMPC H3X  HAL2   0.090000        1.0079           0
   27729 O1   124  DMPC H3Y  HAL2   0.090000        1.0079           0
   27730 O1   124  DMPC C34  CTL2  -0.180000       12.0107           0
   27731 O1   124  DMPC H4X  HAL2   0.090000        1.0079           0
   27732 O1   124  DMPC H4Y  HAL2   0.090000        1.0079           0
   27733 O1   124  DMPC C35  CTL2  -0.180000       12.0107           0
   27734 O1   124  DMPC H5X  HAL2   0.090000        1.0079           0
   27735 O1   124  DMPC H5Y  HAL2   0.090000        1.0079           0
   27736 O1   124  DMPC C36  CTL2  -0.180000       12.0107           0
   27737 O1   124  DMPC H6X  HAL2   0.090000        1.0079           0
   27738 O1   124  DMPC H6Y  HAL2   0.090000        1.0079           0
   27739 O1   124  DMPC C37  CTL2  -0.180000       12.0107           0
   27740 O1   124  DMPC H7X  HAL2   0.090000        1.0079           0
   27741 O1   124  DMPC H7Y  HAL2   0.090000        1.0079           0
   27742 O1   124  DMPC C38  CTL2  -0.180000       12.0107           0
   27743 O1   124  DMPC H8X  HAL2   0.090000        1.0079           0
   27744 O1   124  DMPC H8Y  HAL2   0.090000        1.0079           0
   27745 O1   124  DMPC C39  CTL2  -0.180000       12.0107           0
   27746 O1   124  DMPC H9X  HAL2   0.090000        1.0079           0
   27747 O1   124  DMPC H9Y  HAL2   0.090000        1.0079           0
   27748 O1   124  DMPC C310 CTL2  -0.180000       12.0107           0
   27749 O1   124  DMPC H10X HAL2   0.090000        1.0079           0
   27750 O1   124  DMPC H10Y HAL2   0.090000        1.0079           0
   27751 O1   124  DMPC C311 CTL2  -0.180000       12.0107           0
   27752 O1   124  DMPC H11X HAL2   0.090000        1.0079           0
   27753 O1   124  DMPC H11Y HAL2   0.090000        1.0079           0
   27754 O1   124  DMPC C312 CTL2  -0.180000       12.0107           0
   27755 O1   124  DMPC H12X HAL2   0.090000        1.0079           0
   27756 O1   124  DMPC H12Y HAL2   0.090000        1.0079           0
   27757 O1   124  DMPC C313 CTL2  -0.180000       12.0107           0
   27758 O1   124  DMPC H13X HAL2   0.090000        1.0079           0
   27759 O1   124  DMPC H13Y HAL2   0.090000        1.0079           0
   27760 O1   124  DMPC C314 CTL3  -0.270000       12.0107           0
   27761 O1   124  DMPC H14X HAL3   0.090000        1.0079           0
   27762 O1   124  DMPC H14Y HAL3   0.090000        1.0079           0
   27763 O1   124  DMPC H14Z HAL3   0.090000        1.0079           0
   27764 O1   125  DMPC N    NTL   -0.600000       14.0067           0
   27765 O1   125  DMPC C13  CTL5  -0.350000       12.0107           0
   27766 O1   125  DMPC H13A HL     0.250000        1.0079           0
   27767 O1   125  DMPC H13B HL     0.250000        1.0079           0
   27768 O1   125  DMPC H13C HL     0.250000        1.0079           0
   27769 O1   125  DMPC C14  CTL5  -0.350000       12.0107           0
   27770 O1   125  DMPC H14A HL     0.250000        1.0079           0
   27771 O1   125  DMPC H14B HL     0.250000        1.0079           0
   27772 O1   125  DMPC H14C HL     0.250000        1.0079           0
   27773 O1   125  DMPC C15  CTL5  -0.350000       12.0107           0
   27774 O1   125  DMPC H15A HL     0.250000        1.0079           0
   27775 O1   125  DMPC H15B HL     0.250000        1.0079           0
   27776 O1   125  DMPC H15C HL     0.250000        1.0079           0
   27777 O1   125  DMPC C12  CTL2  -0.100000       12.0107           0
   27778 O1   125  DMPC H12A HL     0.250000        1.0079           0
   27779 O1   125  DMPC H12B HL     0.250000        1.0079           0
   27780 O1   125  DMPC C11  CTL2  -0.080000       12.0107           0
   27781 O1   125  DMPC H11A HAL2   0.090000        1.0079           0
   27782 O1   125  DMPC H11B HAL2   0.090000        1.0079           0
   27783 O1   125  DMPC P    PL     1.500000       30.9738           0
   27784 O1   125  DMPC O13  O2L   -0.780000       15.9994           0
   27785 O1   125  DMPC O14  O2L   -0.780000       15.9994           0
   27786 O1   125  DMPC O11  OSLP  -0.570000       15.9994           0
   27787 O1   125  DMPC O12  OSLP  -0.570000       15.9994           0
   27788 O1   125  DMPC C1   CTL2  -0.080000       12.0107           0
   27789 O1   125  DMPC HA   HAL2   0.090000        1.0079           0
   27790 O1   125  DMPC HB   HAL2   0.090000        1.0079           0
   27791 O1   125  DMPC C2   CTL1   0.170000       12.0107           0
   27792 O1   125  DMPC HS   HAL1   0.090000        1.0079           0
   27793 O1   125  DMPC O21  OSL   -0.490000       15.9994           0
   27794 O1   125  DMPC C21  CL     0.900000       12.0107           0
   27795 O1   125  DMPC O22  OBL   -0.630000       15.9994           0
   27796 O1   125  DMPC C22  CTL2  -0.220000       12.0107           0
   27797 O1   125  DMPC H2R  HAL2   0.090000        1.0079           0
   27798 O1   125  DMPC H2S  HAL2   0.090000        1.0079           0
   27799 O1   125  DMPC C3   CTL2   0.080000       12.0107           0
   27800 O1   125  DMPC HX   HAL2   0.090000        1.0079           0
   27801 O1   125  DMPC HY   HAL2   0.090000        1.0079           0
   27802 O1   125  DMPC O31  OSL   -0.490000       15.9994           0
   27803 O1   125  DMPC C31  CL     0.900000       12.0107           0
   27804 O1   125  DMPC O32  OBL   -0.630000       15.9994           0
   27805 O1   125  DMPC C32  CTL2  -0.220000       12.0107           0
   27806 O1   125  DMPC H2X  HAL2   0.090000        1.0079           0
   27807 O1   125  DMPC H2Y  HAL2   0.090000        1.0079           0
   27808 O1   125  DMPC C23  CTL2  -0.180000       12.0107           0
   27809 O1   125  DMPC H3R  HAL2   0.090000        1.0079           0
   27810 O1   125  DMPC H3S  HAL2   0.090000        1.0079           0
   27811 O1   125  DMPC C24  CTL2  -0.180000       12.0107           0
   27812 O1   125  DMPC H4R  HAL2   0.090000        1.0079           0
   27813 O1   125  DMPC H4S  HAL2   0.090000        1.0079           0
   27814 O1   125  DMPC C25  CTL2  -0.180000       12.0107           0
   27815 O1   125  DMPC H5R  HAL2   0.090000        1.0079           0
   27816 O1   125  DMPC H5S  HAL2   0.090000        1.0079           0
   27817 O1   125  DMPC C26  CTL2  -0.180000       12.0107           0
   27818 O1   125  DMPC H6R  HAL2   0.090000        1.0079           0
   27819 O1   125  DMPC H6S  HAL2   0.090000        1.0079           0
   27820 O1   125  DMPC C27  CTL2  -0.180000       12.0107           0
   27821 O1   125  DMPC H7R  HAL2   0.090000        1.0079           0
   27822 O1   125  DMPC H7S  HAL2   0.090000        1.0079           0
   27823 O1   125  DMPC C28  CTL2  -0.180000       12.0107           0
   27824 O1   125  DMPC H8R  HAL2   0.090000        1.0079           0
   27825 O1   125  DMPC H8S  HAL2   0.090000        1.0079           0
   27826 O1   125  DMPC C29  CTL2  -0.180000       12.0107           0
   27827 O1   125  DMPC H9R  HAL2   0.090000        1.0079           0
   27828 O1   125  DMPC H9S  HAL2   0.090000        1.0079           0
   27829 O1   125  DMPC C210 CTL2  -0.180000       12.0107           0
   27830 O1   125  DMPC H10R HAL2   0.090000        1.0079           0
   27831 O1   125  DMPC H10S HAL2   0.090000        1.0079           0
   27832 O1   125  DMPC C211 CTL2  -0.180000       12.0107           0
   27833 O1   125  DMPC H11R HAL2   0.090000        1.0079           0
   27834 O1   125  DMPC H11S HAL2   0.090000        1.0079           0
   27835 O1   125  DMPC C212 CTL2  -0.180000       12.0107           0
   27836 O1   125  DMPC H12R HAL2   0.090000        1.0079           0
   27837 O1   125  DMPC H12S HAL2   0.090000        1.0079           0
   27838 O1   125  DMPC C213 CTL2  -0.180000       12.0107           0
   27839 O1   125  DMPC H13R HAL2   0.090000        1.0079           0
   27840 O1   125  DMPC H13S HAL2   0.090000        1.0079           0
   27841 O1   125  DMPC C214 CTL3  -0.270000       12.0107           0
   27842 O1   125  DMPC H14R HAL3   0.090000        1.0079           0
   27843 O1   125  DMPC H14S HAL3   0.090000        1.0079           0
   27844 O1   125  DMPC H14T HAL3   0.090000        1.0079           0
   27845 O1   125  DMPC C33  CTL2  -0.180000       12.0107           0
   27846 O1   125  DMPC H3X  HAL2   0.090000        1.0079           0
   27847 O1   125  DMPC H3Y  HAL2   0.090000        1.0079           0
   27848 O1   125  DMPC C34  CTL2  -0.180000       12.0107           0
   27849 O1   125  DMPC H4X  HAL2   0.090000        1.0079           0
   27850 O1   125  DMPC H4Y  HAL2   0.090000        1.0079           0
   27851 O1   125  DMPC C35  CTL2  -0.180000       12.0107           0
   27852 O1   125  DMPC H5X  HAL2   0.090000        1.0079           0
   27853 O1   125  DMPC H5Y  HAL2   0.090000        1.0079           0
   27854 O1   125  DMPC C36  CTL2  -0.180000       12.0107           0
   27855 O1   125  DMPC H6X  HAL2   0.090000        1.0079           0
   27856 O1   125  DMPC H6Y  HAL2   0.090000        1.0079           0
   27857 O1   125  DMPC C37  CTL2  -0.180000       12.0107           0
   27858 O1   125  DMPC H7X  HAL2   0.090000        1.0079           0
   27859 O1   125  DMPC H7Y  HAL2   0.090000        1.0079           0
   27860 O1   125  DMPC C38  CTL2  -0.180000       12.0107           0
   27861 O1   125  DMPC H8X  HAL2   0.090000        1.0079           0
   27862 O1   125  DMPC H8Y  HAL2   0.090000        1.0079           0
   27863 O1   125  DMPC C39  CTL2  -0.180000       12.0107           0
   27864 O1   125  DMPC H9X  HAL2   0.090000        1.0079           0
   27865 O1   125  DMPC H9Y  HAL2   0.090000        1.0079           0
   27866 O1   125  DMPC C310 CTL2  -0.180000       12.0107           0
   27867 O1   125  DMPC H10X HAL2   0.090000        1.0079           0
   27868 O1   125  DMPC H10Y HAL2   0.090000        1.0079           0
   27869 O1   125  DMPC C311 CTL2  -0.180000       12.0107           0
   27870 O1   125  DMPC H11X HAL2   0.090000        1.0079           0
   27871 O1   125  DMPC H11Y HAL2   0.090000        1.0079           0
   27872 O1   125  DMPC C312 CTL2  -0.180000       12.0107           0
   27873 O1   125  DMPC H12X HAL2   0.090000        1.0079           0
   27874 O1   125  DMPC H12Y HAL2   0.090000        1.0079           0
   27875 O1   125  DMPC C313 CTL2  -0.180000       12.0107           0
   27876 O1   125  DMPC H13X HAL2   0.090000        1.0079           0
   27877 O1   125  DMPC H13Y HAL2   0.090000        1.0079           0
   27878 O1   125  DMPC C314 CTL3  -0.270000       12.0107           0
   27879 O1   125  DMPC H14X HAL3   0.090000        1.0079           0
   27880 O1   125  DMPC H14Y HAL3   0.090000        1.0079           0
   27881 O1   125  DMPC H14Z HAL3   0.090000        1.0079           0
   27882 O1   126  DMPC N    NTL   -0.600000       14.0067           0
   27883 O1   126  DMPC C13  CTL5  -0.350000       12.0107           0
   27884 O1   126  DMPC H13A HL     0.250000        1.0079           0
   27885 O1   126  DMPC H13B HL     0.250000        1.0079           0
   27886 O1   126  DMPC H13C HL     0.250000        1.0079           0
   27887 O1   126  DMPC C14  CTL5  -0.350000       12.0107           0
   27888 O1   126  DMPC H14A HL     0.250000        1.0079           0
   27889 O1   126  DMPC H14B HL     0.250000        1.0079           0
   27890 O1   126  DMPC H14C HL     0.250000        1.0079           0
   27891 O1   126  DMPC C15  CTL5  -0.350000       12.0107           0
   27892 O1   126  DMPC H15A HL     0.250000        1.0079           0
   27893 O1   126  DMPC H15B HL     0.250000        1.0079           0
   27894 O1   126  DMPC H15C HL     0.250000        1.0079           0
   27895 O1   126  DMPC C12  CTL2  -0.100000       12.0107           0
   27896 O1   126  DMPC H12A HL     0.250000        1.0079           0
   27897 O1   126  DMPC H12B HL     0.250000        1.0079           0
   27898 O1   126  DMPC C11  CTL2  -0.080000       12.0107           0
   27899 O1   126  DMPC H11A HAL2   0.090000        1.0079           0
   27900 O1   126  DMPC H11B HAL2   0.090000        1.0079           0
   27901 O1   126  DMPC P    PL     1.500000       30.9738           0
   27902 O1   126  DMPC O13  O2L   -0.780000       15.9994           0
   27903 O1   126  DMPC O14  O2L   -0.780000       15.9994           0
   27904 O1   126  DMPC O11  OSLP  -0.570000       15.9994           0
   27905 O1   126  DMPC O12  OSLP  -0.570000       15.9994           0
   27906 O1   126  DMPC C1   CTL2  -0.080000       12.0107           0
   27907 O1   126  DMPC HA   HAL2   0.090000        1.0079           0
   27908 O1   126  DMPC HB   HAL2   0.090000        1.0079           0
   27909 O1   126  DMPC C2   CTL1   0.170000       12.0107           0
   27910 O1   126  DMPC HS   HAL1   0.090000        1.0079           0
   27911 O1   126  DMPC O21  OSL   -0.490000       15.9994           0
   27912 O1   126  DMPC C21  CL     0.900000       12.0107           0
   27913 O1   126  DMPC O22  OBL   -0.630000       15.9994           0
   27914 O1   126  DMPC C22  CTL2  -0.220000       12.0107           0
   27915 O1   126  DMPC H2R  HAL2   0.090000        1.0079           0
   27916 O1   126  DMPC H2S  HAL2   0.090000        1.0079           0
   27917 O1   126  DMPC C3   CTL2   0.080000       12.0107           0
   27918 O1   126  DMPC HX   HAL2   0.090000        1.0079           0
   27919 O1   126  DMPC HY   HAL2   0.090000        1.0079           0
   27920 O1   126  DMPC O31  OSL   -0.490000       15.9994           0
   27921 O1   126  DMPC C31  CL     0.900000       12.0107           0
   27922 O1   126  DMPC O32  OBL   -0.630000       15.9994           0
   27923 O1   126  DMPC C32  CTL2  -0.220000       12.0107           0
   27924 O1   126  DMPC H2X  HAL2   0.090000        1.0079           0
   27925 O1   126  DMPC H2Y  HAL2   0.090000        1.0079           0
   27926 O1   126  DMPC C23  CTL2  -0.180000       12.0107           0
   27927 O1   126  DMPC H3R  HAL2   0.090000        1.0079           0
   27928 O1   126  DMPC H3S  HAL2   0.090000        1.0079           0
   27929 O1   126  DMPC C24  CTL2  -0.180000       12.0107           0
   27930 O1   126  DMPC H4R  HAL2   0.090000        1.0079           0
   27931 O1   126  DMPC H4S  HAL2   0.090000        1.0079           0
   27932 O1   126  DMPC C25  CTL2  -0.180000       12.0107           0
   27933 O1   126  DMPC H5R  HAL2   0.090000        1.0079           0
   27934 O1   126  DMPC H5S  HAL2   0.090000        1.0079           0
   27935 O1   126  DMPC C26  CTL2  -0.180000       12.0107           0
   27936 O1   126  DMPC H6R  HAL2   0.090000        1.0079           0
   27937 O1   126  DMPC H6S  HAL2   0.090000        1.0079           0
   27938 O1   126  DMPC C27  CTL2  -0.180000       12.0107           0
   27939 O1   126  DMPC H7R  HAL2   0.090000        1.0079           0
   27940 O1   126  DMPC H7S  HAL2   0.090000        1.0079           0
   27941 O1   126  DMPC C28  CTL2  -0.180000       12.0107           0
   27942 O1   126  DMPC H8R  HAL2   0.090000        1.0079           0
   27943 O1   126  DMPC H8S  HAL2   0.090000        1.0079           0
   27944 O1   126  DMPC C29  CTL2  -0.180000       12.0107           0
   27945 O1   126  DMPC H9R  HAL2   0.090000        1.0079           0
   27946 O1   126  DMPC H9S  HAL2   0.090000        1.0079           0
   27947 O1   126  DMPC C210 CTL2  -0.180000       12.0107           0
   27948 O1   126  DMPC H10R HAL2   0.090000        1.0079           0
   27949 O1   126  DMPC H10S HAL2   0.090000        1.0079           0
   27950 O1   126  DMPC C211 CTL2  -0.180000       12.0107           0
   27951 O1   126  DMPC H11R HAL2   0.090000        1.0079           0
   27952 O1   126  DMPC H11S HAL2   0.090000        1.0079           0
   27953 O1   126  DMPC C212 CTL2  -0.180000       12.0107           0
   27954 O1   126  DMPC H12R HAL2   0.090000        1.0079           0
   27955 O1   126  DMPC H12S HAL2   0.090000        1.0079           0
   27956 O1   126  DMPC C213 CTL2  -0.180000       12.0107           0
   27957 O1   126  DMPC H13R HAL2   0.090000        1.0079           0
   27958 O1   126  DMPC H13S HAL2   0.090000        1.0079           0
   27959 O1   126  DMPC C214 CTL3  -0.270000       12.0107           0
   27960 O1   126  DMPC H14R HAL3   0.090000        1.0079           0
   27961 O1   126  DMPC H14S HAL3   0.090000        1.0079           0
   27962 O1   126  DMPC H14T HAL3   0.090000        1.0079           0
   27963 O1   126  DMPC C33  CTL2  -0.180000       12.0107           0
   27964 O1   126  DMPC H3X  HAL2   0.090000        1.0079           0
   27965 O1   126  DMPC H3Y  HAL2   0.090000        1.0079           0
   27966 O1   126  DMPC C34  CTL2  -0.180000       12.0107           0
   27967 O1   126  DMPC H4X  HAL2   0.090000        1.0079           0
   27968 O1   126  DMPC H4Y  HAL2   0.090000        1.0079           0
   27969 O1   126  DMPC C35  CTL2  -0.180000       12.0107           0
   27970 O1   126  DMPC H5X  HAL2   0.090000        1.0079           0
   27971 O1   126  DMPC H5Y  HAL2   0.090000        1.0079           0
   27972 O1   126  DMPC C36  CTL2  -0.180000       12.0107           0
   27973 O1   126  DMPC H6X  HAL2   0.090000        1.0079           0
   27974 O1   126  DMPC H6Y  HAL2   0.090000        1.0079           0
   27975 O1   126  DMPC C37  CTL2  -0.180000       12.0107           0
   27976 O1   126  DMPC H7X  HAL2   0.090000        1.0079           0
   27977 O1   126  DMPC H7Y  HAL2   0.090000        1.0079           0
   27978 O1   126  DMPC C38  CTL2  -0.180000       12.0107           0
   27979 O1   126  DMPC H8X  HAL2   0.090000        1.0079           0
   27980 O1   126  DMPC H8Y  HAL2   0.090000        1.0079           0
   27981 O1   126  DMPC C39  CTL2  -0.180000       12.0107           0
   27982 O1   126  DMPC H9X  HAL2   0.090000        1.0079           0
   27983 O1   126  DMPC H9Y  HAL2   0.090000        1.0079           0
   27984 O1   126  DMPC C310 CTL2  -0.180000       12.0107           0
   27985 O1   126  DMPC H10X HAL2   0.090000        1.0079           0
   27986 O1   126  DMPC H10Y HAL2   0.090000        1.0079           0
   27987 O1   126  DMPC C311 CTL2  -0.180000       12.0107           0
   27988 O1   126  DMPC H11X HAL2   0.090000        1.0079           0
   27989 O1   126  DMPC H11Y HAL2   0.090000        1.0079           0
   27990 O1   126  DMPC C312 CTL2  -0.180000       12.0107           0
   27991 O1   126  DMPC H12X HAL2   0.090000        1.0079           0
   27992 O1   126  DMPC H12Y HAL2   0.090000        1.0079           0
   27993 O1   126  DMPC C313 CTL2  -0.180000       12.0107           0
   27994 O1   126  DMPC H13X HAL2   0.090000        1.0079           0
   27995 O1   126  DMPC H13Y HAL2   0.090000        1.0079           0
   27996 O1   126  DMPC C314 CTL3  -0.270000       12.0107           0
   27997 O1   126  DMPC H14X HAL3   0.090000        1.0079           0
   27998 O1   126  DMPC H14Y HAL3   0.090000        1.0079           0
   27999 O1   126  DMPC H14Z HAL3   0.090000        1.0079           0
   28000 O1   127  DMPC N    NTL   -0.600000       14.0067           0
   28001 O1   127  DMPC C13  CTL5  -0.350000       12.0107           0
   28002 O1   127  DMPC H13A HL     0.250000        1.0079           0
   28003 O1   127  DMPC H13B HL     0.250000        1.0079           0
   28004 O1   127  DMPC H13C HL     0.250000        1.0079           0
   28005 O1   127  DMPC C14  CTL5  -0.350000       12.0107           0
   28006 O1   127  DMPC H14A HL     0.250000        1.0079           0
   28007 O1   127  DMPC H14B HL     0.250000        1.0079           0
   28008 O1   127  DMPC H14C HL     0.250000        1.0079           0
   28009 O1   127  DMPC C15  CTL5  -0.350000       12.0107           0
   28010 O1   127  DMPC H15A HL     0.250000        1.0079           0
   28011 O1   127  DMPC H15B HL     0.250000        1.0079           0
   28012 O1   127  DMPC H15C HL     0.250000        1.0079           0
   28013 O1   127  DMPC C12  CTL2  -0.100000       12.0107           0
   28014 O1   127  DMPC H12A HL     0.250000        1.0079           0
   28015 O1   127  DMPC H12B HL     0.250000        1.0079           0
   28016 O1   127  DMPC C11  CTL2  -0.080000       12.0107           0
   28017 O1   127  DMPC H11A HAL2   0.090000        1.0079           0
   28018 O1   127  DMPC H11B HAL2   0.090000        1.0079           0
   28019 O1   127  DMPC P    PL     1.500000       30.9738           0
   28020 O1   127  DMPC O13  O2L   -0.780000       15.9994           0
   28021 O1   127  DMPC O14  O2L   -0.780000       15.9994           0
   28022 O1   127  DMPC O11  OSLP  -0.570000       15.9994           0
   28023 O1   127  DMPC O12  OSLP  -0.570000       15.9994           0
   28024 O1   127  DMPC C1   CTL2  -0.080000       12.0107           0
   28025 O1   127  DMPC HA   HAL2   0.090000        1.0079           0
   28026 O1   127  DMPC HB   HAL2   0.090000        1.0079           0
   28027 O1   127  DMPC C2   CTL1   0.170000       12.0107           0
   28028 O1   127  DMPC HS   HAL1   0.090000        1.0079           0
   28029 O1   127  DMPC O21  OSL   -0.490000       15.9994           0
   28030 O1   127  DMPC C21  CL     0.900000       12.0107           0
   28031 O1   127  DMPC O22  OBL   -0.630000       15.9994           0
   28032 O1   127  DMPC C22  CTL2  -0.220000       12.0107           0
   28033 O1   127  DMPC H2R  HAL2   0.090000        1.0079           0
   28034 O1   127  DMPC H2S  HAL2   0.090000        1.0079           0
   28035 O1   127  DMPC C3   CTL2   0.080000       12.0107           0
   28036 O1   127  DMPC HX   HAL2   0.090000        1.0079           0
   28037 O1   127  DMPC HY   HAL2   0.090000        1.0079           0
   28038 O1   127  DMPC O31  OSL   -0.490000       15.9994           0
   28039 O1   127  DMPC C31  CL     0.900000       12.0107           0
   28040 O1   127  DMPC O32  OBL   -0.630000       15.9994           0
   28041 O1   127  DMPC C32  CTL2  -0.220000       12.0107           0
   28042 O1   127  DMPC H2X  HAL2   0.090000        1.0079           0
   28043 O1   127  DMPC H2Y  HAL2   0.090000        1.0079           0
   28044 O1   127  DMPC C23  CTL2  -0.180000       12.0107           0
   28045 O1   127  DMPC H3R  HAL2   0.090000        1.0079           0
   28046 O1   127  DMPC H3S  HAL2   0.090000        1.0079           0
   28047 O1   127  DMPC C24  CTL2  -0.180000       12.0107           0
   28048 O1   127  DMPC H4R  HAL2   0.090000        1.0079           0
   28049 O1   127  DMPC H4S  HAL2   0.090000        1.0079           0
   28050 O1   127  DMPC C25  CTL2  -0.180000       12.0107           0
   28051 O1   127  DMPC H5R  HAL2   0.090000        1.0079           0
   28052 O1   127  DMPC H5S  HAL2   0.090000        1.0079           0
   28053 O1   127  DMPC C26  CTL2  -0.180000       12.0107           0
   28054 O1   127  DMPC H6R  HAL2   0.090000        1.0079           0
   28055 O1   127  DMPC H6S  HAL2   0.090000        1.0079           0
   28056 O1   127  DMPC C27  CTL2  -0.180000       12.0107           0
   28057 O1   127  DMPC H7R  HAL2   0.090000        1.0079           0
   28058 O1   127  DMPC H7S  HAL2   0.090000        1.0079           0
   28059 O1   127  DMPC C28  CTL2  -0.180000       12.0107           0
   28060 O1   127  DMPC H8R  HAL2   0.090000        1.0079           0
   28061 O1   127  DMPC H8S  HAL2   0.090000        1.0079           0
   28062 O1   127  DMPC C29  CTL2  -0.180000       12.0107           0
   28063 O1   127  DMPC H9R  HAL2   0.090000        1.0079           0
   28064 O1   127  DMPC H9S  HAL2   0.090000        1.0079           0
   28065 O1   127  DMPC C210 CTL2  -0.180000       12.0107           0
   28066 O1   127  DMPC H10R HAL2   0.090000        1.0079           0
   28067 O1   127  DMPC H10S HAL2   0.090000        1.0079           0
   28068 O1   127  DMPC C211 CTL2  -0.180000       12.0107           0
   28069 O1   127  DMPC H11R HAL2   0.090000        1.0079           0
   28070 O1   127  DMPC H11S HAL2   0.090000        1.0079           0
   28071 O1   127  DMPC C212 CTL2  -0.180000       12.0107           0
   28072 O1   127  DMPC H12R HAL2   0.090000        1.0079           0
   28073 O1   127  DMPC H12S HAL2   0.090000        1.0079           0
   28074 O1   127  DMPC C213 CTL2  -0.180000       12.0107           0
   28075 O1   127  DMPC H13R HAL2   0.090000        1.0079           0
   28076 O1   127  DMPC H13S HAL2   0.090000        1.0079           0
   28077 O1   127  DMPC C214 CTL3  -0.270000       12.0107           0
   28078 O1   127  DMPC H14R HAL3   0.090000        1.0079           0
   28079 O1   127  DMPC H14S HAL3   0.090000        1.0079           0
   28080 O1   127  DMPC H14T HAL3   0.090000        1.0079           0
   28081 O1   127  DMPC C33  CTL2  -0.180000       12.0107           0
   28082 O1   127  DMPC H3X  HAL2   0.090000        1.0079           0
   28083 O1   127  DMPC H3Y  HAL2   0.090000        1.0079           0
   28084 O1   127  DMPC C34  CTL2  -0.180000       12.0107           0
   28085 O1   127  DMPC H4X  HAL2   0.090000        1.0079           0
   28086 O1   127  DMPC H4Y  HAL2   0.090000        1.0079           0
   28087 O1   127  DMPC C35  CTL2  -0.180000       12.0107           0
   28088 O1   127  DMPC H5X  HAL2   0.090000        1.0079           0
   28089 O1   127  DMPC H5Y  HAL2   0.090000        1.0079           0
   28090 O1   127  DMPC C36  CTL2  -0.180000       12.0107           0
   28091 O1   127  DMPC H6X  HAL2   0.090000        1.0079           0
   28092 O1   127  DMPC H6Y  HAL2   0.090000        1.0079           0
   28093 O1   127  DMPC C37  CTL2  -0.180000       12.0107           0
   28094 O1   127  DMPC H7X  HAL2   0.090000        1.0079           0
   28095 O1   127  DMPC H7Y  HAL2   0.090000        1.0079           0
   28096 O1   127  DMPC C38  CTL2  -0.180000       12.0107           0
   28097 O1   127  DMPC H8X  HAL2   0.090000        1.0079           0
   28098 O1   127  DMPC H8Y  HAL2   0.090000        1.0079           0
   28099 O1   127  DMPC C39  CTL2  -0.180000       12.0107           0
   28100 O1   127  DMPC H9X  HAL2   0.090000        1.0079           0
   28101 O1   127  DMPC H9Y  HAL2   0.090000        1.0079           0
   28102 O1   127  DMPC C310 CTL2  -0.180000       12.0107           0
   28103 O1   127  DMPC H10X HAL2   0.090000        1.0079           0
   28104 O1   127  DMPC H10Y HAL2   0.090000        1.0079           0
   28105 O1   127  DMPC C311 CTL2  -0.180000       12.0107           0
   28106 O1   127  DMPC H11X HAL2   0.090000        1.0079           0
   28107 O1   127  DMPC H11Y HAL2   0.090000        1.0079           0
   28108 O1   127  DMPC C312 CTL2  -0.180000       12.0107           0
   28109 O1   127  DMPC H12X HAL2   0.090000        1.0079           0
   28110 O1   127  DMPC H12Y HAL2   0.090000        1.0079           0
   28111 O1   127  DMPC C313 CTL2  -0.180000       12.0107           0
   28112 O1   127  DMPC H13X HAL2   0.090000        1.0079           0
   28113 O1   127  DMPC H13Y HAL2   0.090000        1.0079           0
   28114 O1   127  DMPC C314 CTL3  -0.270000       12.0107           0
   28115 O1   127  DMPC H14X HAL3   0.090000        1.0079           0
   28116 O1   127  DMPC H14Y HAL3   0.090000        1.0079           0
   28117 O1   127  DMPC H14Z HAL3   0.090000        1.0079           0
   28118 O1   128  DMPC N    NTL   -0.600000       14.0067           0
   28119 O1   128  DMPC C13  CTL5  -0.350000       12.0107           0
   28120 O1   128  DMPC H13A HL     0.250000        1.0079           0
   28121 O1   128  DMPC H13B HL     0.250000        1.0079           0
   28122 O1   128  DMPC H13C HL     0.250000        1.0079           0
   28123 O1   128  DMPC C14  CTL5  -0.350000       12.0107           0
   28124 O1   128  DMPC H14A HL     0.250000        1.0079           0
   28125 O1   128  DMPC H14B HL     0.250000        1.0079           0
   28126 O1   128  DMPC H14C HL     0.250000        1.0079           0
   28127 O1   128  DMPC C15  CTL5  -0.350000       12.0107           0
   28128 O1   128  DMPC H15A HL     0.250000        1.0079           0
   28129 O1   128  DMPC H15B HL     0.250000        1.0079           0
   28130 O1   128  DMPC H15C HL     0.250000        1.0079           0
   28131 O1   128  DMPC C12  CTL2  -0.100000       12.0107           0
   28132 O1   128  DMPC H12A HL     0.250000        1.0079           0
   28133 O1   128  DMPC H12B HL     0.250000        1.0079           0
   28134 O1   128  DMPC C11  CTL2  -0.080000       12.0107           0
   28135 O1   128  DMPC H11A HAL2   0.090000        1.0079           0
   28136 O1   128  DMPC H11B HAL2   0.090000        1.0079           0
   28137 O1   128  DMPC P    PL     1.500000       30.9738           0
   28138 O1   128  DMPC O13  O2L   -0.780000       15.9994           0
   28139 O1   128  DMPC O14  O2L   -0.780000       15.9994           0
   28140 O1   128  DMPC O11  OSLP  -0.570000       15.9994           0
   28141 O1   128  DMPC O12  OSLP  -0.570000       15.9994           0
   28142 O1   128  DMPC C1   CTL2  -0.080000       12.0107           0
   28143 O1   128  DMPC HA   HAL2   0.090000        1.0079           0
   28144 O1   128  DMPC HB   HAL2   0.090000        1.0079           0
   28145 O1   128  DMPC C2   CTL1   0.170000       12.0107           0
   28146 O1   128  DMPC HS   HAL1   0.090000        1.0079           0
   28147 O1   128  DMPC O21  OSL   -0.490000       15.9994           0
   28148 O1   128  DMPC C21  CL     0.900000       12.0107           0
   28149 O1   128  DMPC O22  OBL   -0.630000       15.9994           0
   28150 O1   128  DMPC C22  CTL2  -0.220000       12.0107           0
   28151 O1   128  DMPC H2R  HAL2   0.090000        1.0079           0
   28152 O1   128  DMPC H2S  HAL2   0.090000        1.0079           0
   28153 O1   128  DMPC C3   CTL2   0.080000       12.0107           0
   28154 O1   128  DMPC HX   HAL2   0.090000        1.0079           0
   28155 O1   128  DMPC HY   HAL2   0.090000        1.0079           0
   28156 O1   128  DMPC O31  OSL   -0.490000       15.9994           0
   28157 O1   128  DMPC C31  CL     0.900000       12.0107           0
   28158 O1   128  DMPC O32  OBL   -0.630000       15.9994           0
   28159 O1   128  DMPC C32  CTL2  -0.220000       12.0107           0
   28160 O1   128  DMPC H2X  HAL2   0.090000        1.0079           0
   28161 O1   128  DMPC H2Y  HAL2   0.090000        1.0079           0
   28162 O1   128  DMPC C23  CTL2  -0.180000       12.0107           0
   28163 O1   128  DMPC H3R  HAL2   0.090000        1.0079           0
   28164 O1   128  DMPC H3S  HAL2   0.090000        1.0079           0
   28165 O1   128  DMPC C24  CTL2  -0.180000       12.0107           0
   28166 O1   128  DMPC H4R  HAL2   0.090000        1.0079           0
   28167 O1   128  DMPC H4S  HAL2   0.090000        1.0079           0
   28168 O1   128  DMPC C25  CTL2  -0.180000       12.0107           0
   28169 O1   128  DMPC H5R  HAL2   0.090000        1.0079           0
   28170 O1   128  DMPC H5S  HAL2   0.090000        1.0079           0
   28171 O1   128  DMPC C26  CTL2  -0.180000       12.0107           0
   28172 O1   128  DMPC H6R  HAL2   0.090000        1.0079           0
   28173 O1   128  DMPC H6S  HAL2   0.090000        1.0079           0
   28174 O1   128  DMPC C27  CTL2  -0.180000       12.0107           0
   28175 O1   128  DMPC H7R  HAL2   0.090000        1.0079           0
   28176 O1   128  DMPC H7S  HAL2   0.090000        1.0079           0
   28177 O1   128  DMPC C28  CTL2  -0.180000       12.0107           0
   28178 O1   128  DMPC H8R  HAL2   0.090000        1.0079           0
   28179 O1   128  DMPC H8S  HAL2   0.090000        1.0079           0
   28180 O1   128  DMPC C29  CTL2  -0.180000       12.0107           0
   28181 O1   128  DMPC H9R  HAL2   0.090000        1.0079           0
   28182 O1   128  DMPC H9S  HAL2   0.090000        1.0079           0
   28183 O1   128  DMPC C210 CTL2  -0.180000       12.0107           0
   28184 O1   128  DMPC H10R HAL2   0.090000        1.0079           0
   28185 O1   128  DMPC H10S HAL2   0.090000        1.0079           0
   28186 O1   128  DMPC C211 CTL2  -0.180000       12.0107           0
   28187 O1   128  DMPC H11R HAL2   0.090000        1.0079           0
   28188 O1   128  DMPC H11S HAL2   0.090000        1.0079           0
   28189 O1   128  DMPC C212 CTL2  -0.180000       12.0107           0
   28190 O1   128  DMPC H12R HAL2   0.090000        1.0079           0
   28191 O1   128  DMPC H12S HAL2   0.090000        1.0079           0
   28192 O1   128  DMPC C213 CTL2  -0.180000       12.0107           0
   28193 O1   128  DMPC H13R HAL2   0.090000        1.0079           0
   28194 O1   128  DMPC H13S HAL2   0.090000        1.0079           0
   28195 O1   128  DMPC C214 CTL3  -0.270000       12.0107           0
   28196 O1   128  DMPC H14R HAL3   0.090000        1.0079           0
   28197 O1   128  DMPC H14S HAL3   0.090000        1.0079           0
   28198 O1   128  DMPC H14T HAL3   0.090000        1.0079           0
   28199 O1   128  DMPC C33  CTL2  -0.180000       12.0107           0
   28200 O1   128  DMPC H3X  HAL2   0.090000        1.0079           0
   28201 O1   128  DMPC H3Y  HAL2   0.090000        1.0079           0
   28202 O1   128  DMPC C34  CTL2  -0.180000       12.0107           0
   28203 O1   128  DMPC H4X  HAL2   0.090000        1.0079           0
   28204 O1   128  DMPC H4Y  HAL2   0.090000        1.0079           0
   28205 O1   128  DMPC C35  CTL2  -0.180000       12.0107           0
   28206 O1   128  DMPC H5X  HAL2   0.090000        1.0079           0
   28207 O1   128  DMPC H5Y  HAL2   0.090000        1.0079           0
   28208 O1   128  DMPC C36  CTL2  -0.180000       12.0107           0
   28209 O1   128  DMPC H6X  HAL2   0.090000        1.0079           0
   28210 O1   128  DMPC H6Y  HAL2   0.090000        1.0079           0
   28211 O1   128  DMPC C37  CTL2  -0.180000       12.0107           0
   28212 O1   128  DMPC H7X  HAL2   0.090000        1.0079           0
   28213 O1   128  DMPC H7Y  HAL2   0.090000        1.0079           0
   28214 O1   128  DMPC C38  CTL2  -0.180000       12.0107           0
   28215 O1   128  DMPC H8X  HAL2   0.090000        1.0079           0
   28216 O1   128  DMPC H8Y  HAL2   0.090000        1.0079           0
   28217 O1   128  DMPC C39  CTL2  -0.180000       12.0107           0
   28218 O1   128  DMPC H9X  HAL2   0.090000        1.0079           0
   28219 O1   128  DMPC H9Y  HAL2   0.090000        1.0079           0
   28220 O1   128  DMPC C310 CTL2  -0.180000       12.0107           0
   28221 O1   128  DMPC H10X HAL2   0.090000        1.0079           0
   28222 O1   128  DMPC H10Y HAL2   0.090000        1.0079           0
   28223 O1   128  DMPC C311 CTL2  -0.180000       12.0107           0
   28224 O1   128  DMPC H11X HAL2   0.090000        1.0079           0
   28225 O1   128  DMPC H11Y HAL2   0.090000        1.0079           0
   28226 O1   128  DMPC C312 CTL2  -0.180000       12.0107           0
   28227 O1   128  DMPC H12X HAL2   0.090000        1.0079           0
   28228 O1   128  DMPC H12Y HAL2   0.090000        1.0079           0
   28229 O1   128  DMPC C313 CTL2  -0.180000       12.0107           0
   28230 O1   128  DMPC H13X HAL2   0.090000        1.0079           0
   28231 O1   128  DMPC H13Y HAL2   0.090000        1.0079           0
   28232 O1   128  DMPC C314 CTL3  -0.270000       12.0107           0
   28233 O1   128  DMPC H14X HAL3   0.090000        1.0079           0
   28234 O1   128  DMPC H14Y HAL3   0.090000        1.0079           0
   28235 O1   128  DMPC H14Z HAL3   0.090000        1.0079           0

   23730 !NBOND: bonds
       1       2       1       3       4       5       4       6
       7       8       7       9      10      11      10      12
      13      14      13      15      16      17      16      18
      19      20      19      21      22      23      22      24
      25      26      25      27      28      29      28      30
      31      32      31      33      34      35      34      36
      37      38      37      39      40      41      40      42
      43      44      43      45      46      47      46      48
      49      50      49      51      52      53      52      54
      55      56      55      57      58      59      58      60
      61      62      61      63      64      65      64      66
      67      68      67      69      70      71      70      72
      73      74      73      75      76      77      76      78
      79      80      79      81      82      83      82      84
      85      86      85      87      88      89      88      90
      91      92      91      93      94      95      94      96
      97      98      97      99     100     101     100     102
     103     104     103     105     106     107     106     108
     109     110     109     111     112     113     112     114
     115     116     115     117     118     119     118     120
     121     122     121     123     124     125     124     126
     127     128     127     129     130     131     130     132
     133     134     133     135     136     137     136     138
     139     140     139     141     142     143     142     144
     145     146     145     147     148     149     148     150
     151     152     151     153     154     155     154     156
     157     158     157     159     160     161     160     162
     163     164     163     165     166     167     166     168
     169     170     169     171     172     173     172     174
     175     176     175     177     178     179     178     180
     181     182     181     183     184     185     184     186
     187     188     187     189     190     191     190     192
     193     194     193     195     196     197     196     198
     199     200     199     201     202     203     202     204
     205     206     205     207     208     209     208     210
     211     212     211     213     214     215     214     216
     217     218     217     219     220     221     220     222
     223     224     223     225     226     227     226     228
     229     230     229     231     232     233     232     234
     235     236     235     237     238     239     238     240
     241     242     241     243     244     245     244     246
     247     248     247     249     250     251     250     252
     253     254     253     255     256     257     256     258
     259     260     259     261     262     263     262     264
     265     266     265     267     268     269     268     270
     271     272     271     273     274     275     274     276
     277     278     277     279     280     281     280     282
     283     284     283     285     286     287     286     288
     289     290     289     291     292     293     292     294
     295     296     295     297     298     299     298     300
     301     302     301     303     304     305     304     306
     307     308     307     309     310     311     310     312
     313     314     313     315     316     317     316     318
     319     320     319     321     322     323     322     324
     325     326     325     327     328     329     328     330
     331     332     331     333     334     335     334     336
     337     338     337     339     340     341     340     342
     343     344     343     345     346     347     346     348
     349     350     349     351     352     353     352     354
     355     356     355     357     358     359     358     360
     361     362     361     363     364     365     364     366
     367     368     367     369     370     371     370     372
     373     374     373     375     376     377     376     378
     379     380     379     381     382     383     382     384
     385     386     385     387     388     389     388     390
     391     392     391     393     394     395     394     396
     397     398     397     399     400     401     400     402
     403     404     403     405     406     407     406     408
     409     410     409     411     412     413     412     414
     415     416     415     417     418     419     418     420
     421     422     421     423     424     425     424     426
     427     428     427     429     430     431     430     432
     433     434     433     435     436     437     436     438
     439     440     439     441     442     443     442     444
     445     446     445     447     448     449     448     450
     451     452     451     453     454     455     454     456
     457     458     457     459     460     461     460     462
     463     464     463     465     466     467     466     468
     469     470     469     471     472     473     472     474
     475     476     475     477     478     479     478     480
     481     482     481     483     484     485     484     486
     487     488     487     489     490     491     490     492
     493     494     493     495     496     497     496     498
     499     500     499     501     502     503     502     504
     505     506     505     507     508     509     508     510
     511     512     511     513     514     515     514     516
     517     518     517     519     520     521     520     522
     523     524     523     525     526     527     526     528
     529     530     529     531     532     533     532     534
     535     536     535     537     538     539     538     540
     541     542     541     543     544     545     544     546
     547     548     547     549     550     551     550     552
     553     554     553     555     556     557     556     558
     559     560     559     561     562     563     562     564
     565     566     565     567     568     569     568     570
     571     572     571     573     574     575     574     576
     577     578     577     579     580     581     580     582
     583     584     583     585     586     587     586     588
     589     590     589     591     592     593     592     594
     595     596     595     597     598     599     598     600
     601     602     601     603     604     605     604     606
     607     608     607     609     610     611     610     612
     613     614     613     615     616     617     616     618
     619     620     619     621     622     623     622     624
     625     626     625     627     628     629     628     630
     631     632     631     633     634     635     634     636
     637     638     637     639     640     641     640     642
     643     644     643     645     646     647     646     648
     649     650     649     651     652     653     652     654
     655     656     655     657     658     659     658     660
     661     662     661     663     664     665     664     666
     667     668     667     669     670     671     670     672
     673     674     673     675     676     677     676     678
     679     680     679     681     682     683     682     684
     685     686     685     687     688     689     688     690
     691     692     691     693     694     695     694     696
     697     698     697     699     700     701     700     702
     703     704     703     705     706     707     706     708
     709     710     709     711     712     713     712     714
     715     716     715     717     718     719     718     720
     721     722     721     723     724     725     724     726
     727     728     727     729     730     731     730     732
     733     734     733     735     736     737     736     738
     739     740     739     741     742     743     742     744
     745     746     745     747     748     749     748     750
     751     752     751     753     754     755     754     756
     757     758     757     759     760     761     760     762
     763     764     763     765     766     767     766     768
     769     770     769     771     772     773     772     774
     775     776     775     777     778     779     778     780
     781     782     781     783     784     785     784     786
     787     788     787     789     790     791     790     792
     793     794     793     795     796     797     796     798
     799     800     799     801     802     803     802     804
     805     806     805     807     808     809     808     810
     811     812     811     813     814     815     814     816
     817     818     817     819     820     821     820     822
     823     824     823     825     826     827     826     828
     829     830     829     831     832     833     832     834
     835     836     835     837     838     839     838     840
     841     842     841     843     844     845     844     846
     847     848     847     849     850     851     850     852
     853     854     853     855     856     857     856     858
     859     860     859     861     862     863     862     864
     865     866     865     867     868     869     868     870
     871     872     871     873     874     875     874     876
     877     878     877     879     880     881     880     882
     883     884     883     885     886     887     886     888
     889     890     889     891     892     893     892     894
     895     896     895     897     898     899     898     900
     901     902     901     903     904     905     904     906
     907     908     907     909     910     911     910     912
     913     914     913     915     916     917     916     918
     919     920     919     921     922     923     922     924
     925     926     925     927     928     929     928     930
     931     932     931     933     934     935     934     936
     937     938     937     939     940     941     940     942
     943     944     943     945     946     947     946     948
     949     950     949     951     952     953     952     954
     955     956     955     957     958     959     958     960
     961     962     961     963     964     965     964     966
     967     968     967     969     970     971     970     972
     973     974     973     975     976     977     976     978
     979     980     979     981     982     983     982     984
     985     986     985     987     988     989     988     990
     991     992     991     993     994     995     994     996
     997     998     997     999    1000    1001    1000    1002
    1003    1004    1003    1005    1006    1007    1006    1008
    1009    1010    1009    1011    1012    1013    1012    1014
    1015    1016    1015    1017    1018    1019    1018    1020
    1021    1022    1021    1023    1024    1025    1024    1026
    1027    1028    1027    1029    1030    1031    1030    1032
    1033    1034    1033    1035    1036    1037    1036    1038
    1039    1040    1039    1041    1042    1043    1042    1044
    1045    1046    1045    1047    1048    1049    1048    1050
    1051    1052    1051    1053    1054    1055    1054    1056
    1057    1058    1057    1059    1060    1061    1060    1062
    1063    1064    1063    1065    1066    1067    1066    1068
    1069    1070    1069    1071    1072    1073    1072    1074
    1075    1076    1075    1077    1078    1079    1078    1080
    1081    1082    1081    1083    1084    1085    1084    1086
    1087    1088    1087    1089    1090    1091    1090    1092
    1093    1094    1093    1095    1096    1097    1096    1098
    1099    1100    1099    1101    1102    1103    1102    1104
    1105    1106    1105    1107    1108    1109    1108    1110
    1111    1112    1111    1113    1114    1115    1114    1116
    1117    1118    1117    1119    1120    1121    1120    1122
    1123    1124    1123    1125    1126    1127    1126    1128
    1129    1130    1129    1131    1132    1133    1132    1134
    1135    1136    1135    1137    1138    1139    1138    1140
    1141    1142    1141    1143    1144    1145    1144    1146
    1147    1148    1147    1149    1150    1151    1150    1152
    1153    1154    1153    1155    1156    1157    1156    1158
    1159    1160    1159    1161    1162    1163    1162    1164
    1165    1166    1165    1167    1168    1169    1168    1170
    1171    1172    1171    1173    1174    1175    1174    1176
    1177    1178    1177    1179    1180    1181    1180    1182
    1183    1184    1183    1185    1186    1187    1186    1188
    1189    1190    1189    1191    1192    1193    1192    1194
    1195    1196    1195    1197    1198    1199    1198    1200
    1201    1202    1201    1203    1204    1205    1204    1206
    1207    1208    1207    1209    1210    1211    1210    1212
    1213    1214    1213    1215    1216    1217    1216    1218
    1219    1220    1219    1221    1222    1223    1222    1224
    1225    1226    1225    1227    1228    1229    1228    1230
    1231    1232    1231    1233    1234    1235    1234    1236
    1237    1238    1237    1239    1240    1241    1240    1242
    1243    1244    1243    1245    1246    1247    1246    1248
    1249    1250    1249    1251    1252    1253    1252    1254
    1255    1256    1255    1257    1258    1259    1258    1260
    1261    1262    1261    1263    1264    1265    1264    1266
    1267    1268    1267    1269    1270    1271    1270    1272
    1273    1274    1273    1275    1276    1277    1276    1278
    1279    1280    1279    1281    1282    1283    1282    1284
    1285    1286    1285    1287    1288    1289    1288    1290
    1291    1292    1291    1293    1294    1295    1294    1296
    1297    1298    1297    1299    1300    1301    1300    1302
    1303    1304    1303    1305    1306    1307    1306    1308
    1309    1310    1309    1311    1312    1313    1312    1314
    1315    1316    1315    1317    1318    1319    1318    1320
    1321    1322    1321    1323    1324    1325    1324    1326
    1327    1328    1327    1329    1330    1331    1330    1332
    1333    1334    1333    1335    1336    1337    1336    1338
    1339    1340    1339    1341    1342    1343    1342    1344
    1345    1346    1345    1347    1348    1349    1348    1350
    1351    1352    1351    1353    1354    1355    1354    1356
    1357    1358    1357    1359    1360    1361    1360    1362
    1363    1364    1363    1365    1366    1367    1366    1368
    1369    1370    1369    1371    1372    1373    1372    1374
    1375    1376    1375    1377    1378    1379    1378    1380
    1381    1382    1381    1383    1384    1385    1384    1386
    1387    1388    1387    1389    1390    1391    1390    1392
    1393    1394    1393    1395    1396    1397    1396    1398
    1399    1400    1399    1401    1402    1403    1402    1404
    1405    1406    1405    1407    1408    1409    1408    1410
    1411    1412    1411    1413    1414    1415    1414    1416
    1417    1418    1417    1419    1420    1421    1420    1422
    1423    1424    1423    1425    1426    1427    1426    1428
    1429    1430    1429    1431    1432    1433    1432    1434
    1435    1436    1435    1437    1438    1439    1438    1440
    1441    1442    1441    1443    1444    1445    1444    1446
    1447    1448    1447    1449    1450    1451    1450    1452
    1453    1454    1453    1455    1456    1457    1456    1458
    1459    1460    1459    1461    1462    1463    1462    1464
    1465    1466    1465    1467    1468    1469    1468    1470
    1471    1472    1471    1473    1474    1475    1474    1476
    1477    1478    1477    1479    1480    1481    1480    1482
    1483    1484    1483    1485    1486    1487    1486    1488
    1489    1490    1489    1491    1492    1493    1492    1494
    1495    1496    1495    1497    1498    1499    1498    1500
    1501    1502    1501    1503    1504    1505    1504    1506
    1507    1508    1507    1509    1510    1511    1510    1512
    1513    1514    1513    1515    1516    1517    1516    1518
    1519    1520    1519    1521    1522    1523    1522    1524
    1525    1526    1525    1527    1528    1529    1528    1530
    1531    1532    1531    1533    1534    1535    1534    1536
    1537    1538    1537    1539    1540    1541    1540    1542
    1543    1544    1543    1545    1546    1547    1546    1548
    1549    1550    1549    1551    1552    1553    1552    1554
    1555    1556    1555    1557    1558    1559    1558    1560
    1561    1562    1561    1563    1564    1565    1564    1566
    1567    1568    1567    1569    1570    1571    1570    1572
    1573    1574    1573    1575    1576    1577    1576    1578
    1579    1580    1579    1581    1582    1583    1582    1584
    1585    1586    1585    1587    1588    1589    1588    1590
    1591    1592    1591    1593    1594    1595    1594    1596
    1597    1598    1597    1599    1600    1601    1600    1602
    1603    1604    1603    1605    1606    1607    1606    1608
    1609    1610    1609    1611    1612    1613    1612    1614
    1615    1616    1615    1617    1618    1619    1618    1620
    1621    1622    1621    1623    1624    1625    1624    1626
    1627    1628    1627    1629    1630    1631    1630    1632
    1633    1634    1633    1635    1636    1637    1636    1638
    1639    1640    1639    1641    1642    1643    1642    1644
    1645    1646    1645    1647    1648    1649    1648    1650
    1651    1652    1651    1653    1654    1655    1654    1656
    1657    1658    1657    1659    1660    1661    1660    1662
    1663    1664    1663    1665    1666    1667    1666    1668
    1669    1670    1669    1671    1672    1673    1672    1674
    1675    1676    1675    1677    1678    1679    1678    1680
    1681    1682    1681    1683    1684    1685    1684    1686
    1687    1688    1687    1689    1690    1691    1690    1692
    1693    1694    1693    1695    1696    1697    1696    1698
    1699    1700    1699    1701    1702    1703    1702    1704
    1705    1706    1705    1707    1708    1709    1708    1710
    1711    1712    1711    1713    1714    1715    1714    1716
    1717    1718    1717    1719    1720    1721    1720    1722
    1723    1724    1723    1725    1726    1727    1726    1728
    1729    1730    1729    1731    1732    1733    1732    1734
    1735    1736    1735    1737    1738    1739    1738    1740
    1741    1742    1741    1743    1744    1745    1744    1746
    1747    1748    1747    1749    1750    1751    1750    1752
    1753    1754    1753    1755    1756    1757    1756    1758
    1759    1760    1759    1761    1762    1763    1762    1764
    1765    1766    1765    1767    1768    1769    1768    1770
    1771    1772    1771    1773    1774    1775    1774    1776
    1777    1778    1777    1779    1780    1781    1780    1782
    1783    1784    1783    1785    1786    1787    1786    1788
    1789    1790    1789    1791    1792    1793    1792    1794
    1795    1796    1795    1797    1798    1799    1798    1800
    1801    1802    1801    1803    1804    1805    1804    1806
    1807    1808    1807    1809    1810    1811    1810    1812
    1813    1814    1813    1815    1816    1817    1816    1818
    1819    1820    1819    1821    1822    1823    1822    1824
    1825    1826    1825    1827    1828    1829    1828    1830
    1831    1832    1831    1833    1834    1835    1834    1836
    1837    1838    1837    1839    1840    1841    1840    1842
    1843    1844    1843    1845    1846    1847    1846    1848
    1849    1850    1849    1851    1852    1853    1852    1854
    1855    1856    1855    1857    1858    1859    1858    1860
    1861    1862    1861    1863    1864    1865    1864    1866
    1867    1868    1867    1869    1870    1871    1870    1872
    1873    1874    1873    1875    1876    1877    1876    1878
    1879    1880    1879    1881    1882    1883    1882    1884
    1885    1886    1885    1887    1888    1889    1888    1890
    1891    1892    1891    1893    1894    1895    1894    1896
    1897    1898    1897    1899    1900    1901    1900    1902
    1903    1904    1903    1905    1906    1907    1906    1908
    1909    1910    1909    1911    1912    1913    1912    1914
    1915    1916    1915    1917    1918    1919    1918    1920
    1921    1922    1921    1923    1924    1925    1924    1926
    1927    1928    1927    1929    1930    1931    1930    1932
    1933    1934    1933    1935    1936    1937    1936    1938
    1939    1940    1939    1941    1942    1943    1942    1944
    1945    1946    1945    1947    1948    1949    1948    1950
    1951    1952    1951    1953    1954    1955    1954    1956
    1957    1958    1957    1959    1960    1961    1960    1962
    1963    1964    1963    1965    1966    1967    1966    1968
    1969    1970    1969    1971    1972    1973    1972    1974
    1975    1976    1975    1977    1978    1979    1978    1980
    1981    1982    1981    1983    1984    1985    1984    1986
    1987    1988    1987    1989    1990    1991    1990    1992
    1993    1994    1993    1995    1996    1997    1996    1998
    1999    2000    1999    2001    2002    2003    2002    2004
    2005    2006    2005    2007    2008    2009    2008    2010
    2011    2012    2011    2013    2014    2015    2014    2016
    2017    2018    2017    2019    2020    2021    2020    2022
    2023    2024    2023    2025    2026    2027    2026    2028
    2029    2030    2029    2031    2032    2033    2032    2034
    2035    2036    2035    2037    2038    2039    2038    2040
    2041    2042    2041    2043    2044    2045    2044    2046
    2047    2048    2047    2049    2050    2051    2050    2052
    2053    2054    2053    2055    2056    2057    2056    2058
    2059    2060    2059    2061    2062    2063    2062    2064
    2065    2066    2065    2067    2068    2069    2068    2070
    2071    2072    2071    2073    2074    2075    2074    2076
    2077    2078    2077    2079    2080    2081    2080    2082
    2083    2084    2083    2085    2086    2087    2086    2088
    2089    2090    2089    2091    2092    2093    2092    2094
    2095    2096    2095    2097    2098    2099    2098    2100
    2101    2102    2101    2103    2104    2105    2104    2106
    2107    2108    2107    2109    2110    2111    2110    2112
    2113    2114    2113    2115    2116    2117    2116    2118
    2119    2120    2119    2121    2122    2123    2122    2124
    2125    2126    2125    2127    2128    2129    2128    2130
    2131    2132    2131    2133    2134    2135    2134    2136
    2137    2138    2137    2139    2140    2141    2140    2142
    2143    2144    2143    2145    2146    2147    2146    2148
    2149    2150    2149    2151    2152    2153    2152    2154
    2155    2156    2155    2157    2158    2159    2158    2160
    2161    2162    2161    2163    2164    2165    2164    2166
    2167    2168    2167    2169    2170    2171    2170    2172
    2173    2174    2173    2175    2176    2177    2176    2178
    2179    2180    2179    2181    2182    2183    2182    2184
    2185    2186    2185    2187    2188    2189    2188    2190
    2191    2192    2191    2193    2194    2195    2194    2196
    2197    2198    2197    2199    2200    2201    2200    2202
    2203    2204    2203    2205    2206    2207    2206    2208
    2209    2210    2209    2211    2212    2213    2212    2214
    2215    2216    2215    2217    2218    2219    2218    2220
    2221    2222    2221    2223    2224    2225    2224    2226
    2227    2228    2227    2229    2230    2231    2230    2232
    2233    2234    2233    2235    2236    2237    2236    2238
    2239    2240    2239    2241    2242    2243    2242    2244
    2245    2246    2245    2247    2248    2249    2248    2250
    2251    2252    2251    2253    2254    2255    2254    2256
    2257    2258    2257    2259    2260    2261    2260    2262
    2263    2264    2263    2265    2266    2267    2266    2268
    2269    2270    2269    2271    2272    2273    2272    2274
    2275    2276    2275    2277    2278    2279    2278    2280
    2281    2282    2281    2283    2284    2285    2284    2286
    2287    2288    2287    2289    2290    2291    2290    2292
    2293    2294    2293    2295    2296    2297    2296    2298
    2299    2300    2299    2301    2302    2303    2302    2304
    2305    2306    2305    2307    2308    2309    2308    2310
    2311    2312    2311    2313    2314    2315    2314    2316
    2317    2318    2317    2319    2320    2321    2320    2322
    2323    2324    2323    2325    2326    2327    2326    2328
    2329    2330    2329    2331    2332    2333    2332    2334
    2335    2336    2335    2337    2338    2339    2338    2340
    2341    2342    2341    2343    2344    2345    2344    2346
    2347    2348    2347    2349    2350    2351    2350    2352
    2353    2354    2353    2355    2356    2357    2356    2358
    2359    2360    2359    2361    2362    2363    2362    2364
    2365    2366    2365    2367    2368    2369    2368    2370
    2371    2372    2371    2373    2374    2375    2374    2376
    2377    2378    2377    2379    2380    2381    2380    2382
    2383    2384    2383    2385    2386    2387    2386    2388
    2389    2390    2389    2391    2392    2393    2392    2394
    2395    2396    2395    2397    2398    2399    2398    2400
    2401    2402    2401    2403    2404    2405    2404    2406
    2407    2408    2407    2409    2410    2411    2410    2412
    2413    2414    2413    2415    2416    2417    2416    2418
    2419    2420    2419    2421    2422    2423    2422    2424
    2425    2426    2425    2427    2428    2429    2428    2430
    2431    2432    2431    2433    2434    2435    2434    2436
    2437    2438    2437    2439    2440    2441    2440    2442
    2443    2444    2443    2445    2446    2447    2446    2448
    2449    2450    2449    2451    2452    2453    2452    2454
    2455    2456    2455    2457    2458    2459    2458    2460
    2461    2462    2461    2463    2464    2465    2464    2466
    2467    2468    2467    2469    2470    2471    2470    2472
    2473    2474    2473    2475    2476    2477    2476    2478
    2479    2480    2479    2481    2482    2483    2482    2484
    2485    2486    2485    2487    2488    2489    2488    2490
    2491    2492    2491    2493    2494    2495    2494    2496
    2497    2498    2497    2499    2500    2501    2500    2502
    2503    2504    2503    2505    2506    2507    2506    2508
    2509    2510    2509    2511    2512    2513    2512    2514
    2515    2516    2515    2517    2518    2519    2518    2520
    2521    2522    2521    2523    2524    2525    2524    2526
    2527    2528    2527    2529    2530    2531    2530    2532
    2533    2534    2533    2535    2536    2537    2536    2538
    2539    2540    2539    2541    2542    2543    2542    2544
    2545    2546    2545    2547    2548    2549    2548    2550
    2551    2552    2551    2553    2554    2555    2554    2556
    2557    2558    2557    2559    2560    2561    2560    2562
    2563    2564    2563    2565    2566    2567    2566    2568
    2569    2570    2569    2571    2572    2573    2572    2574
    2575    2576    2575    2577    2578    2579    2578    2580
    2581    2582    2581    2583    2584    2585    2584    2586
    2587    2588    2587    2589    2590    2591    2590    2592
    2593    2594    2593    2595    2596    2597    2596    2598
    2599    2600    2599    2601    2602    2603    2602    2604
    2605    2606    2605    2607    2608    2609    2608    2610
    2611    2612    2611    2613    2614    2615    2614    2616
    2617    2618    2617    2619    2620    2621    2620    2622
    2623    2624    2623    2625    2626    2627    2626    2628
    2629    2630    2629    2631    2632    2633    2632    2634
    2635    2636    2635    2637    2638    2639    2638    2640
    2641    2642    2641    2643    2644    2645    2644    2646
    2647    2648    2647    2649    2650    2651    2650    2652
    2653    2654    2653    2655    2656    2657    2656    2658
    2659    2660    2659    2661    2662    2663    2662    2664
    2665    2666    2665    2667    2668    2669    2668    2670
    2671    2672    2671    2673    2674    2675    2674    2676
    2677    2678    2677    2679    2680    2681    2680    2682
    2683    2684    2683    2685    2686    2687    2686    2688
    2689    2690    2689    2691    2692    2693    2692    2694
    2695    2696    2695    2697    2698    2699    2698    2700
    2701    2702    2701    2703    2704    2705    2704    2706
    2707    2708    2707    2709    2710    2711    2710    2712
    2713    2714    2713    2715    2716    2717    2716    2718
    2719    2720    2719    2721    2722    2723    2722    2724
    2725    2726    2725    2727    2728    2729    2728    2730
    2731    2732    2731    2733    2734    2735    2734    2736
    2737    2738    2737    2739    2740    2741    2740    2742
    2743    2744    2743    2745    2746    2747    2746    2748
    2749    2750    2749    2751    2752    2753    2752    2754
    2755    2756    2755    2757    2758    2759    2758    2760
    2761    2762    2761    2763    2764    2765    2764    2766
    2767    2768    2767    2769    2770    2771    2770    2772
    2773    2774    2773    2775    2776    2777    2776    2778
    2779    2780    2779    2781    2782    2783    2782    2784
    2785    2786    2785    2787    2788    2789    2788    2790
    2791    2792    2791    2793    2794    2795    2794    2796
    2797    2798    2797    2799    2800    2801    2800    2802
    2803    2804    2803    2805    2806    2807    2806    2808
    2809    2810    2809    2811    2812    2813    2812    2814
    2815    2816    2815    2817    2818    2819    2818    2820
    2821    2822    2821    2823    2824    2825    2824    2826
    2827    2828    2827    2829    2830    2831    2830    2832
    2833    2834    2833    2835    2836    2837    2836    2838
    2839    2840    2839    2841    2842    2843    2842    2844
    2845    2846    2845    2847    2848    2849    2848    2850
    2851    2852    2851    2853    2854    2855    2854    2856
    2857    2858    2857    2859    2860    2861    2860    2862
    2863    2864    2863    2865    2866    2867    2866    2868
    2869    2870    2869    2871    2872    2873    2872    2874
    2875    2876    2875    2877    2878    2879    2878    2880
    2881    2882    2881    2883    2884    2885    2884    2886
    2887    2888    2887    2889    2890    2891    2890    2892
    2893    2894    2893    2895    2896    2897    2896    2898
    2899    2900    2899    2901    2902    2903    2902    2904
    2905    2906    2905    2907    2908    2909    2908    2910
    2911    2912    2911    2913    2914    2915    2914    2916
    2917    2918    2917    2919    2920    2921    2920    2922
    2923    2924    2923    2925    2926    2927    2926    2928
    2929    2930    2929    2931    2932    2933    2932    2934
    2935    2936    2935    2937    2938    2939    2938    2940
    2941    2942    2941    2943    2944    2945    2944    2946
    2947    2948    2947    2949    2950    2951    2950    2952
    2953    2954    2953    2955    2956    2957    2956    2958
    2959    2960    2959    2961    2962    2963    2962    2964
    2965    2966    2965    2967    2968    2969    2968    2970
    2971    2972    2971    2973    2974    2975    2974    2976
    2977    2978    2977    2979    2980    2981    2980    2982
    2983    2984    2983    2985    2986    2987    2986    2988
    2989    2990    2989    2991    2992    2993    2992    2994
    2995    2996    2995    2997    2998    2999    2998    3000
    3001    3002    3001    3003    3004    3005    3004    3006
    3007    3008    3007    3009    3010    3011    3010    3012
    3013    3014    3013    3015    3016    3017    3016    3018
    3019    3020    3019    3021    3022    3023    3022    3024
    3025    3026    3025    3027    3028    3029    3028    3030
    3031    3032    3031    3033    3034    3035    3034    3036
    3037    3038    3037    3039    3040    3041    3040    3042
    3043    3044    3043    3045    3046    3047    3046    3048
    3049    3050    3049    3051    3052    3053    3052    3054
    3055    3056    3055    3057    3058    3059    3058    3060
    3061    3062    3061    3063    3064    3065    3064    3066
    3067    3068    3067    3069    3070    3071    3070    3072
    3073    3074    3073    3075    3076    3077    3076    3078
    3079    3080    3079    3081    3082    3083    3082    3084
    3085    3086    3085    3087    3088    3089    3088    3090
    3091    3092    3091    3093    3094    3095    3094    3096
    3097    3098    3097    3099    3100    3101    3100    3102
    3103    3104    3103    3105    3106    3107    3106    3108
    3109    3110    3109    3111    3112    3113    3112    3114
    3115    3116    3115    3117    3118    3119    3118    3120
    3121    3122    3121    3123    3124    3125    3124    3126
    3127    3128    3127    3129    3130    3131    3130    3132
    3133    3134    3133    3135    3136    3137    3136    3138
    3139    3140    3139    3141    3142    3143    3142    3144
    3145    3146    3145    3147    3148    3149    3148    3150
    3151    3152    3151    3153    3154    3155    3154    3156
    3157    3158    3157    3159    3160    3161    3160    3162
    3163    3164    3163    3165    3166    3167    3166    3168
    3169    3170    3169    3171    3172    3173    3172    3174
    3175    3176    3175    3177    3178    3179    3178    3180
    3181    3182    3181    3183    3184    3185    3184    3186
    3187    3188    3187    3189    3190    3191    3190    3192
    3193    3194    3193    3195    3196    3197    3196    3198
    3199    3200    3199    3201    3202    3203    3202    3204
    3205    3206    3205    3207    3208    3209    3208    3210
    3211    3212    3211    3213    3214    3215    3214    3216
    3217    3218    3217    3219    3220    3221    3220    3222
    3223    3224    3223    3225    3226    3227    3226    3228
    3229    3230    3229    3231    3232    3233    3232    3234
    3235    3236    3235    3237    3238    3239    3238    3240
    3241    3242    3241    3243    3244    3245    3244    3246
    3247    3248    3247    3249    3250    3251    3250    3252
    3253    3254    3253    3255    3256    3257    3256    3258
    3259    3260    3259    3261    3262    3263    3262    3264
    3265    3266    3265    3267    3268    3269    3268    3270
    3271    3272    3271    3273    3274    3275    3274    3276
    3277    3278    3277    3279    3280    3281    3280    3282
    3283    3284    3283    3285    3286    3287    3286    3288
    3289    3290    3289    3291    3292    3293    3292    3294
    3295    3296    3295    3297    3298    3299    3298    3300
    3301    3302    3301    3303    3304    3305    3304    3306
    3307    3308    3307    3309    3310    3311    3310    3312
    3313    3314    3313    3315    3316    3317    3316    3318
    3319    3320    3319    3321    3322    3323    3322    3324
    3325    3326    3325    3327    3328    3329    3328    3330
    3331    3332    3331    3333    3334    3335    3334    3336
    3337    3338    3337    3339    3340    3341    3340    3342
    3343    3344    3343    3345    3346    3347    3346    3348
    3349    3350    3349    3351    3352    3353    3352    3354
    3355    3356    3355    3357    3358    3359    3358    3360
    3361    3362    3361    3363    3364    3365    3364    3366
    3367    3368    3367    3369    3370    3371    3370    3372
    3373    3374    3373    3375    3376    3377    3376    3378
    3379    3380    3379    3381    3382    3383    3382    3384
    3385    3386    3385    3387    3388    3389    3388    3390
    3391    3392    3391    3393    3394    3395    3394    3396
    3397    3398    3397    3399    3400    3401    3400    3402
    3403    3404    3403    3405    3406    3407    3406    3408
    3409    3410    3409    3411    3412    3413    3412    3414
    3415    3416    3415    3417    3418    3419    3418    3420
    3421    3422    3421    3423    3424    3425    3424    3426
    3427    3428    3427    3429    3430    3431    3430    3432
    3433    3434    3433    3435    3436    3437    3436    3438
    3439    3440    3439    3441    3442    3443    3442    3444
    3445    3446    3445    3447    3448    3449    3448    3450
    3451    3452    3451    3453    3454    3455    3454    3456
    3457    3458    3457    3459    3460    3461    3460    3462
    3463    3464    3463    3465    3466    3467    3466    3468
    3469    3470    3469    3471    3472    3473    3472    3474
    3475    3476    3475    3477    3478    3479    3478    3480
    3481    3482    3481    3483    3484    3485    3484    3486
    3487    3488    3487    3489    3490    3491    3490    3492
    3493    3494    3493    3495    3496    3497    3496    3498
    3499    3500    3499    3501    3502    3503    3502    3504
    3505    3506    3505    3507    3508    3509    3508    3510
    3511    3512    3511    3513    3514    3515    3514    3516
    3517    3518    3517    3519    3520    3521    3520    3522
    3523    3524    3523    3525    3526    3527    3526    3528
    3529    3530    3529    3531    3532    3533    3532    3534
    3535    3536    3535    3537    3538    3539    3538    3540
    3541    3542    3541    3543    3544    3545    3544    3546
    3547    3548    3547    3549    3550    3551    3550    3552
    3553    3554    3553    3555    3556    3557    3556    3558
    3559    3560    3559    3561    3562    3563    3562    3564
    3565    3566    3565    3567    3568    3569    3568    3570
    3571    3572    3571    3573    3574    3575    3574    3576
    3577    3578    3577    3579    3580    3581    3580    3582
    3583    3584    3583    3585    3586    3587    3586    3588
    3589    3590    3589    3591    3592    3593    3592    3594
    3595    3596    3595    3597    3598    3599    3598    3600
    3601    3602    3601    3603    3604    3605    3604    3606
    3607    3608    3607    3609    3610    3611    3610    3612
    3613    3614    3613    3615    3616    3617    3616    3618
    3619    3620    3619    3621    3622    3623    3622    3624
    3625    3626    3625    3627    3628    3629    3628    3630
    3631    3632    3631    3633    3634    3635    3634    3636
    3637    3638    3637    3639    3640    3641    3640    3642
    3643    3644    3643    3645    3646    3647    3646    3648
    3649    3650    3649    3651    3652    3653    3652    3654
    3655    3656    3655    3657    3658    3659    3658    3660
    3661    3662    3661    3663    3664    3665    3664    3666
    3667    3668    3667    3669    3670    3671    3670    3672
    3673    3674    3673    3675    3676    3677    3676    3678
    3679    3680    3679    3681    3682    3683    3682    3684
    3685    3686    3685    3687    3688    3689    3688    3690
    3691    3692    3691    3693    3694    3695    3694    3696
    3697    3698    3697    3699    3700    3701    3700    3702
    3703    3704    3703    3705    3706    3707    3706    3708
    3709    3710    3709    3711    3712    3713    3712    3714
    3715    3716    3715    3717    3718    3719    3718    3720
    3721    3722    3721    3723    3724    3725    3724    3726
    3727    3728    3727    3729    3730    3731    3730    3732
    3733    3734    3733    3735    3736    3737    3736    3738
    3739    3740    3739    3741    3742    3743    3742    3744
    3745    3746    3745    3747    3748    3749    3748    3750
    3751    3752    3751    3753    3754    3755    3754    3756
    3757    3758    3757    3759    3760    3761    3760    3762
    3763    3764    3763    3765    3766    3767    3766    3768
    3769    3770    3769    3771    3772    3773    3772    3774
    3775    3776    3775    3777    3778    3779    3778    3780
    3781    3782    3781    3783    3784    3785    3784    3786
    3787    3788    3787    3789    3790    3791    3790    3792
    3793    3794    3793    3795    3796    3797    3796    3798
    3799    3800    3799    3801    3802    3803    3802    3804
    3805    3806    3805    3807    3808    3809    3808    3810
    3811    3812    3811    3813    3814    3815    3814    3816
    3817    3818    3817    3819    3820    3821    3820    3822
    3823    3824    3823    3825    3826    3827    3826    3828
    3829    3830    3829    3831    3832    3833    3832    3834
    3835    3836    3835    3837    3838    3839    3838    3840
    3841    3842    3841    3843    3844    3845    3844    3846
    3847    3848    3847    3849    3850    3851    3850    3852
    3853    3854    3853    3855    3856    3857    3856    3858
    3859    3860    3859    3861    3862    3863    3862    3864
    3865    3866    3865    3867    3868    3869    3868    3870
    3871    3872    3871    3873    3874    3875    3874    3876
    3877    3878    3877    3879    3880    3881    3880    3882
    3883    3884    3883    3885    3886    3887    3886    3888
    3889    3890    3889    3891    3892    3893    3892    3894
    3895    3896    3895    3897    3898    3899    3898    3900
    3901    3902    3901    3903    3904    3905    3904    3906
    3907    3908    3907    3909    3910    3911    3910    3912
    3913    3914    3913    3915    3916    3917    3916    3918
    3919    3920    3919    3921    3922    3923    3922    3924
    3925    3926    3925    3927    3928    3929    3928    3930
    3931    3932    3931    3933    3934    3935    3934    3936
    3937    3938    3937    3939    3940    3941    3940    3942
    3943    3944    3943    3945    3946    3947    3946    3948
    3949    3950    3949    3951    3952    3953    3952    3954
    3955    3956    3955    3957    3958    3959    3958    3960
    3961    3962    3961    3963    3964    3965    3964    3966
    3967    3968    3967    3969    3970    3971    3970    3972
    3973    3974    3973    3975    3976    3977    3976    3978
    3979    3980    3979    3981    3982    3983    3982    3984
    3985    3986    3985    3987    3988    3989    3988    3990
    3991    3992    3991    3993    3994    3995    3994    3996
    3997    3998    3997    3999    4000    4001    4000    4002
    4003    4004    4003    4005    4006    4007    4006    4008
    4009    4010    4009    4011    4012    4013    4012    4014
    4015    4016    4015    4017    4018    4019    4018    4020
    4021    4022    4021    4023    4024    4025    4024    4026
    4027    4028    4027    4029    4030    4031    4030    4032
    4033    4034    4033    4035    4036    4037    4036    4038
    4039    4040    4039    4041    4042    4043    4042    4044
    4045    4046    4045    4047    4048    4049    4048    4050
    4051    4052    4051    4053    4054    4055    4054    4056
    4057    4058    4057    4059    4060    4061    4060    4062
    4063    4064    4063    4065    4066    4067    4066    4068
    4069    4070    4069    4071    4072    4073    4072    4074
    4075    4076    4075    4077    4078    4079    4078    4080
    4081    4082    4081    4083    4084    4085    4084    4086
    4087    4088    4087    4089    4090    4091    4090    4092
    4093    4094    4093    4095    4096    4097    4096    4098
    4099    4100    4099    4101    4102    4103    4102    4104
    4105    4106    4105    4107    4108    4109    4108    4110
    4111    4112    4111    4113    4114    4115    4114    4116
    4117    4118    4117    4119    4120    4121    4120    4122
    4123    4124    4123    4125    4126    4127    4126    4128
    4129    4130    4129    4131    4132    4133    4132    4134
    4135    4136    4135    4137    4138    4139    4138    4140
    4141    4142    4141    4143    4144    4145    4144    4146
    4147    4148    4147    4149    4150    4151    4150    4152
    4153    4154    4153    4155    4156    4157    4156    4158
    4159    4160    4159    4161    4162    4163    4162    4164
    4165    4166    4165    4167    4168    4169    4168    4170
    4171    4172    4171    4173    4174    4175    4174    4176
    4177    4178    4177    4179    4180    4181    4180    4182
    4183    4184    4183    4185    4186    4187    4186    4188
    4189    4190    4189    4191    4192    4193    4192    4194
    4195    4196    4195    4197    4198    4199    4198    4200
    4201    4202    4201    4203    4204    4205    4204    4206
    4207    4208    4207    4209    4210    4211    4210    4212
    4213    4214    4213    4215    4216    4217    4216    4218
    4219    4220    4219    4221    4222    4223    4222    4224
    4225    4226    4225    4227    4228    4229    4228    4230
    4231    4232    4231    4233    4234    4235    4234    4236
    4237    4238    4237    4239    4240    4241    4240    4242
    4243    4244    4243    4245    4246    4247    4246    4248
    4249    4250    4249    4251    4252    4253    4252    4254
    4255    4256    4255    4257    4258    4259    4258    4260
    4261    4262    4261    4263    4264    4265    4264    4266
    4267    4268    4267    4269    4270    4271    4270    4272
    4273    4274    4273    4275    4276    4277    4276    4278
    4279    4280    4279    4281    4282    4283    4282    4284
    4285    4286    4285    4287    4288    4289    4288    4290
    4291    4292    4291    4293    4294    4295    4294    4296
    4297    4298    4297    4299    4300    4301    4300    4302
    4303    4304    4303    4305    4306    4307    4306    4308
    4309    4310    4309    4311    4312    4313    4312    4314
    4315    4316    4315    4317    4318    4319    4318    4320
    4321    4322    4321    4323    4324    4325    4324    4326
    4327    4328    4327    4329    4330    4331    4330    4332
    4333    4334    4333    4335    4336    4337    4336    4338
    4339    4340    4339    4341    4342    4343    4342    4344
    4345    4346    4345    4347    4348    4349    4348    4350
    4351    4352    4351    4353    4354    4355    4354    4356
    4357    4358    4357    4359    4360    4361    4360    4362
    4363    4364    4363    4365    4366    4367    4366    4368
    4369    4370    4369    4371    4372    4373    4372    4374
    4375    4376    4375    4377    4378    4379    4378    4380
    4381    4382    4381    4383    4384    4385    4384    4386
    4387    4388    4387    4389    4390    4391    4390    4392
    4393    4394    4393    4395    4396    4397    4396    4398
    4399    4400    4399    4401    4402    4403    4402    4404
    4405    4406    4405    4407    4408    4409    4408    4410
    4411    4412    4411    4413    4414    4415    4414    4416
    4417    4418    4417    4419    4420    4421    4420    4422
    4423    4424    4423    4425    4426    4427    4426    4428
    4429    4430    4429    4431    4432    4433    4432    4434
    4435    4436    4435    4437    4438    4439    4438    4440
    4441    4442    4441    4443    4444    4445    4444    4446
    4447    4448    4447    4449    4450    4451    4450    4452
    4453    4454    4453    4455    4456    4457    4456    4458
    4459    4460    4459    4461    4462    4463    4462    4464
    4465    4466    4465    4467    4468    4469    4468    4470
    4471    4472    4471    4473    4474    4475    4474    4476
    4477    4478    4477    4479    4480    4481    4480    4482
    4483    4484    4483    4485    4486    4487    4486    4488
    4489    4490    4489    4491    4492    4493    4492    4494
    4495    4496    4495    4497    4498    4499    4498    4500
    4501    4502    4501    4503    4504    4505    4504    4506
    4507    4508    4507    4509    4510    4511    4510    4512
    4513    4514    4513    4515    4516    4517    4516    4518
    4519    4520    4519    4521    4522    4523    4522    4524
    4525    4526    4525    4527    4528    4529    4528    4530
    4531    4532    4531    4533    4534    4535    4534    4536
    4537    4538    4537    4539    4540    4541    4540    4542
    4543    4544    4543    4545    4546    4547    4546    4548
    4549    4550    4549    4551    4552    4553    4552    4554
    4555    4556    4555    4557    4558    4559    4558    4560
    4561    4562    4561    4563    4564    4565    4564    4566
    4567    4568    4567    4569    4570    4571    4570    4572
    4573    4574    4573    4575    4576    4577    4576    4578
    4579    4580    4579    4581    4582    4583    4582    4584
    4585    4586    4585    4587    4588    4589    4588    4590
    4591    4592    4591    4593    4594    4595    4594    4596
    4597    4598    4597    4599    4600    4601    4600    4602
    4603    4604    4603    4605    4606    4607    4606    4608
    4609    4610    4609    4611    4612    4613    4612    4614
    4615    4616    4615    4617    4618    4619    4618    4620
    4621    4622    4621    4623    4624    4625    4624    4626
    4627    4628    4627    4629    4630    4631    4630    4632
    4633    4634    4633    4635    4636    4637    4636    4638
    4639    4640    4639    4641    4642    4643    4642    4644
    4645    4646    4645    4647    4648    4649    4648    4650
    4651    4652    4651    4653    4654    4655    4654    4656
    4657    4658    4657    4659    4660    4661    4660    4662
    4663    4664    4663    4665    4666    4667    4666    4668
    4669    4670    4669    4671    4672    4673    4672    4674
    4675    4676    4675    4677    4678    4679    4678    4680
    4681    4682    4681    4683    4684    4685    4684    4686
    4687    4688    4687    4689    4690    4691    4690    4692
    4693    4694    4693    4695    4696    4697    4696    4698
    4699    4700    4699    4701    4702    4703    4702    4704
    4705    4706    4705    4707    4708    4709    4708    4710
    4711    4712    4711    4713    4714    4715    4714    4716
    4717    4718    4717    4719    4720    4721    4720    4722
    4723    4724    4723    4725    4726    4727    4726    4728
    4729    4730    4729    4731    4732    4733    4732    4734
    4735    4736    4735    4737    4738    4739    4738    4740
    4741    4742    4741    4743    4744    4745    4744    4746
    4747    4748    4747    4749    4750    4751    4750    4752
    4753    4754    4753    4755    4756    4757    4756    4758
    4759    4760    4759    4761    4762    4763    4762    4764
    4765    4766    4765    4767    4768    4769    4768    4770
    4771    4772    4771    4773    4774    4775    4774    4776
    4777    4778    4777    4779    4780    4781    4780    4782
    4783    4784    4783    4785    4786    4787    4786    4788
    4789    4790    4789    4791    4792    4793    4792    4794
    4795    4796    4795    4797    4798    4799    4798    4800
    4801    4802    4801    4803    4804    4805    4804    4806
    4807    4808    4807    4809    4810    4811    4810    4812
    4813    4814    4813    4815    4816    4817    4816    4818
    4819    4820    4819    4821    4822    4823    4822    4824
    4825    4826    4825    4827    4828    4829    4828    4830
    4831    4832    4831    4833    4834    4835    4834    4836
    4837    4838    4837    4839    4840    4841    4840    4842
    4843    4844    4843    4845    4846    4847    4846    4848
    4849    4850    4849    4851    4852    4853    4852    4854
    4855    4856    4855    4857    4858    4859    4858    4860
    4861    4862    4861    4863    4864    4865    4864    4866
    4867    4868    4867    4869    4870    4871    4870    4872
    4873    4874    4873    4875    4876    4877    4876    4878
    4879    4880    4879    4881    4882    4883    4882    4884
    4885    4886    4885    4887    4888    4889    4888    4890
    4891    4892    4891    4893    4894    4895    4894    4896
    4897    4898    4897    4899    4900    4901    4900    4902
    4903    4904    4903    4905    4906    4907    4906    4908
    4909    4910    4909    4911    4912    4913    4912    4914
    4915    4916    4915    4917    4918    4919    4918    4920
    4921    4922    4921    4923    4924    4925    4924    4926
    4927    4928    4927    4929    4930    4931    4930    4932
    4933    4934    4933    4935    4936    4937    4936    4938
    4939    4940    4939    4941    4942    4943    4942    4944
    4945    4946    4945    4947    4948    4949    4948    4950
    4951    4952    4951    4953    4954    4955    4954    4956
    4957    4958    4957    4959    4960    4961    4960    4962
    4963    4964    4963    4965    4966    4967    4966    4968
    4969    4970    4969    4971    4972    4973    4972    4974
    4975    4976    4975    4977    4978    4979    4978    4980
    4981    4982    4981    4983    4984    4985    4984    4986
    4987    4988    4987    4989    4990    4991    4990    4992
    4993    4994    4993    4995    4996    4997    4996    4998
    4999    5000    4999    5001    5002    5003    5002    5004
    5005    5006    5005    5007    5008    5009    5008    5010
    5011    5012    5011    5013    5014    5015    5014    5016
    5017    5018    5017    5019    5020    5021    5020    5022
    5023    5024    5023    5025    5026    5027    5026    5028
    5029    5030    5029    5031    5032    5033    5032    5034
    5035    5036    5035    5037    5038    5039    5038    5040
    5041    5042    5041    5043    5044    5045    5044    5046
    5047    5048    5047    5049    5050    5051    5050    5052
    5053    5054    5053    5055    5056    5057    5056    5058
    5059    5060    5059    5061    5062    5063    5062    5064
    5065    5066    5065    5067    5068    5069    5068    5070
    5071    5072    5071    5073    5074    5075    5074    5076
    5077    5078    5077    5079    5080    5081    5080    5082
    5083    5084    5083    5085    5086    5087    5086    5088
    5089    5090    5089    5091    5092    5093    5092    5094
    5095    5096    5095    5097    5098    5099    5098    5100
    5101    5102    5101    5103    5104    5105    5104    5106
    5107    5108    5107    5109    5110    5111    5110    5112
    5113    5114    5113    5115    5116    5117    5116    5118
    5119    5120    5119    5121    5122    5123    5122    5124
    5125    5126    5125    5127    5128    5129    5128    5130
    5131    5132    5131    5133    5134    5135    5134    5136
    5137    5138    5137    5139    5140    5141    5140    5142
    5143    5144    5143    5145    5146    5147    5146    5148
    5149    5150    5149    5151    5152    5153    5152    5154
    5155    5156    5155    5157    5158    5159    5158    5160
    5161    5162    5161    5163    5164    5165    5164    5166
    5167    5168    5167    5169    5170    5171    5170    5172
    5173    5174    5173    5175    5176    5177    5176    5178
    5179    5180    5179    5181    5182    5183    5182    5184
    5185    5186    5185    5187    5188    5189    5188    5190
    5191    5192    5191    5193    5194    5195    5194    5196
    5197    5198    5197    5199    5200    5201    5200    5202
    5203    5204    5203    5205    5206    5207    5206    5208
    5209    5210    5209    5211    5212    5213    5212    5214
    5215    5216    5215    5217    5218    5219    5218    5220
    5221    5222    5221    5223    5224    5225    5224    5226
    5227    5228    5227    5229    5230    5231    5230    5232
    5233    5234    5233    5235    5236    5237    5236    5238
    5239    5240    5239    5241    5242    5243    5242    5244
    5245    5246    5245    5247    5248    5249    5248    5250
    5251    5252    5251    5253    5254    5255    5254    5256
    5257    5258    5257    5259    5260    5261    5260    5262
    5263    5264    5263    5265    5266    5267    5266    5268
    5269    5270    5269    5271    5272    5273    5272    5274
    5275    5276    5275    5277    5278    5279    5278    5280
    5281    5282    5281    5283    5284    5285    5284    5286
    5287    5288    5287    5289    5290    5291    5290    5292
    5293    5294    5293    5295    5296    5297    5296    5298
    5299    5300    5299    5301    5302    5303    5302    5304
    5305    5306    5305    5307    5308    5309    5308    5310
    5311    5312    5311    5313    5314    5315    5314    5316
    5317    5318    5317    5319    5320    5321    5320    5322
    5323    5324    5323    5325    5326    5327    5326    5328
    5329    5330    5329    5331    5332    5333    5332    5334
    5335    5336    5335    5337    5338    5339    5338    5340
    5341    5342    5341    5343    5344    5345    5344    5346
    5347    5348    5347    5349    5350    5351    5350    5352
    5353    5354    5353    5355    5356    5357    5356    5358
    5359    5360    5359    5361    5362    5363    5362    5364
    5365    5366    5365    5367    5368    5369    5368    5370
    5371    5372    5371    5373    5374    5375    5374    5376
    5377    5378    5377    5379    5380    5381    5380    5382
    5383    5384    5383    5385    5386    5387    5386    5388
    5389    5390    5389    5391    5392    5393    5392    5394
    5395    5396    5395    5397    5398    5399    5398    5400
    5401    5402    5401    5403    5404    5405    5404    5406
    5407    5408    5407    5409    5410    5411    5410    5412
    5413    5414    5413    5415    5416    5417    5416    5418
    5419    5420    5419    5421    5422    5423    5422    5424
    5425    5426    5425    5427    5428    5429    5428    5430
    5431    5432    5431    5433    5434    5435    5434    5436
    5437    5438    5437    5439    5440    5441    5440    5442
    5443    5444    5443    5445    5446    5447    5446    5448
    5449    5450    5449    5451    5452    5453    5452    5454
    5455    5456    5455    5457    5458    5459    5458    5460
    5461    5462    5461    5463    5464    5465    5464    5466
    5467    5468    5467    5469    5470    5471    5470    5472
    5473    5474    5473    5475    5476    5477    5476    5478
    5479    5480    5479    5481    5482    5483    5482    5484
    5485    5486    5485    5487    5488    5489    5488    5490
    5491    5492    5491    5493    5494    5495    5494    5496
    5497    5498    5497    5499    5500    5501    5500    5502
    5503    5504    5503    5505    5506    5507    5506    5508
    5509    5510    5509    5511    5512    5513    5512    5514
    5515    5516    5515    5517    5518    5519    5518    5520
    5521    5522    5521    5523    5524    5525    5524    5526
    5527    5528    5527    5529    5530    5531    5530    5532
    5533    5534    5533    5535    5536    5537    5536    5538
    5539    5540    5539    5541    5542    5543    5542    5544
    5545    5546    5545    5547    5548    5549    5548    5550
    5551    5552    5551    5553    5554    5555    5554    5556
    5557    5558    5557    5559    5560    5561    5560    5562
    5563    5564    5563    5565    5566    5567    5566    5568
    5569    5570    5569    5571    5572    5573    5572    5574
    5575    5576    5575    5577    5578    5579    5578    5580
    5581    5582    5581    5583    5584    5585    5584    5586
    5587    5588    5587    5589    5590    5591    5590    5592
    5593    5594    5593    5595    5596    5597    5596    5598
    5599    5600    5599    5601    5602    5603    5602    5604
    5605    5606    5605    5607    5608    5609    5608    5610
    5611    5612    5611    5613    5614    5615    5614    5616
    5617    5618    5617    5619    5620    5621    5620    5622
    5623    5624    5623    5625    5626    5627    5626    5628
    5629    5630    5629    5631    5632    5633    5632    5634
    5635    5636    5635    5637    5638    5639    5638    5640
    5641    5642    5641    5643    5644    5645    5644    5646
    5647    5648    5647    5649    5650    5651    5650    5652
    5653    5654    5653    5655    5656    5657    5656    5658
    5659    5660    5659    5661    5662    5663    5662    5664
    5665    5666    5665    5667    5668    5669    5668    5670
    5671    5672    5671    5673    5674    5675    5674    5676
    5677    5678    5677    5679    5680    5681    5680    5682
    5683    5684    5683    5685    5686    5687    5686    5688
    5689    5690    5689    5691    5692    5693    5692    5694
    5695    5696    5695    5697    5698    5699    5698    5700
    5701    5702    5701    5703    5704    5705    5704    5706
    5707    5708    5707    5709    5710    5711    5710    5712
    5713    5714    5713    5715    5716    5717    5716    5718
    5719    5720    5719    5721    5722    5723    5722    5724
    5725    5726    5725    5727    5728    5729    5728    5730
    5731    5732    5731    5733    5734    5735    5734    5736
    5737    5738    5737    5739    5740    5741    5740    5742
    5743    5744    5743    5745    5746    5747    5746    5748
    5749    5750    5749    5751    5752    5753    5752    5754
    5755    5756    5755    5757    5758    5759    5758    5760
    5761    5762    5761    5763    5764    5765    5764    5766
    5767    5768    5767    5769    5770    5771    5770    5772
    5773    5774    5773    5775    5776    5777    5776    5778
    5779    5780    5779    5781    5782    5783    5782    5784
    5785    5786    5785    5787    5788    5789    5788    5790
    5791    5792    5791    5793    5794    5795    5794    5796
    5797    5798    5797    5799    5800    5801    5800    5802
    5803    5804    5803    5805    5806    5807    5806    5808
    5809    5810    5809    5811    5812    5813    5812    5814
    5815    5816    5815    5817    5818    5819    5818    5820
    5821    5822    5821    5823    5824    5825    5824    5826
    5827    5828    5827    5829    5830    5831    5830    5832
    5833    5834    5833    5835    5836    5837    5836    5838
    5839    5840    5839    5841    5842    5843    5842    5844
    5845    5846    5845    5847    5848    5849    5848    5850
    5851    5852    5851    5853    5854    5855    5854    5856
    5857    5858    5857    5859    5860    5861    5860    5862
    5863    5864    5863    5865    5866    5867    5866    5868
    5869    5870    5869    5871    5872    5873    5872    5874
    5875    5876    5875    5877    5878    5879    5878    5880
    5881    5882    5881    5883    5884    5885    5884    5886
    5887    5888    5887    5889    5890    5891    5890    5892
    5893    5894    5893    5895    5896    5897    5896    5898
    5899    5900    5899    5901    5902    5903    5902    5904
    5905    5906    5905    5907    5908    5909    5908    5910
    5911    5912    5911    5913    5914    5915    5914    5916
    5917    5918    5917    5919    5920    5921    5920    5922
    5923    5924    5923    5925    5926    5927    5926    5928
    5929    5930    5929    5931    5932    5933    5932    5934
    5935    5936    5935    5937    5938    5939    5938    5940
    5941    5942    5941    5943    5944    5945    5944    5946
    5947    5948    5947    5949    5950    5951    5950    5952
    5953    5954    5953    5955    5956    5957    5956    5958
    5959    5960    5959    5961    5962    5963    5962    5964
    5965    5966    5965    5967    5968    5969    5968    5970
    5971    5972    5971    5973    5974    5975    5974    5976
    5977    5978    5977    5979    5980    5981    5980    5982
    5983    5984    5983    5985    5986    5987    5986    5988
    5989    5990    5989    5991    5992    5993    5992    5994
    5995    5996    5995    5997    5998    5999    5998    6000
    6001    6002    6001    6003    6004    6005    6004    6006
    6007    6008    6007    6009    6010    6011    6010    6012
    6013    6014    6013    6015    6016    6017    6016    6018
    6019    6020    6019    6021    6022    6023    6022    6024
    6025    6026    6025    6027    6028    6029    6028    6030
    6031    6032    6031    6033    6034    6035    6034    6036
    6037    6038    6037    6039    6040    6041    6040    6042
    6043    6044    6043    6045    6046    6047    6046    6048
    6049    6050    6049    6051    6052    6053    6052    6054
    6055    6056    6055    6057    6058    6059    6058    6060
    6061    6062    6061    6063    6064    6065    6064    6066
    6067    6068    6067    6069    6070    6071    6070    6072
    6073    6074    6073    6075    6076    6077    6076    6078
    6079    6080    6079    6081    6082    6083    6082    6084
    6085    6086    6085    6087    6088    6089    6088    6090
    6091    6092    6091    6093    6094    6095    6094    6096
    6097    6098    6097    6099    6100    6101    6100    6102
    6103    6104    6103    6105    6106    6107    6106    6108
    6109    6110    6109    6111    6112    6113    6112    6114
    6115    6116    6115    6117    6118    6119    6118    6120
    6121    6122    6121    6123    6124    6125    6124    6126
    6127    6128    6127    6129    6130    6131    6130    6132
    6133    6134    6133    6135    6136    6137    6136    6138
    6139    6140    6139    6141    6142    6143    6142    6144
    6145    6146    6145    6147    6148    6149    6148    6150
    6151    6152    6151    6153    6154    6155    6154    6156
    6157    6158    6157    6159    6160    6161    6160    6162
    6163    6164    6163    6165    6166    6167    6166    6168
    6169    6170    6169    6171    6172    6173    6172    6174
    6175    6176    6175    6177    6178    6179    6178    6180
    6181    6182    6181    6183    6184    6185    6184    6186
    6187    6188    6187    6189    6190    6191    6190    6192
    6193    6194    6193    6195    6196    6197    6196    6198
    6199    6200    6199    6201    6202    6203    6202    6204
    6205    6206    6205    6207    6208    6209    6208    6210
    6211    6212    6211    6213    6214    6215    6214    6216
    6217    6218    6217    6219    6220    6221    6220    6222
    6223    6224    6223    6225    6226    6227    6226    6228
    6229    6230    6229    6231    6232    6233    6232    6234
    6235    6236    6235    6237    6238    6239    6238    6240
    6241    6242    6241    6243    6244    6245    6244    6246
    6247    6248    6247    6249    6250    6251    6250    6252
    6253    6254    6253    6255    6256    6257    6256    6258
    6259    6260    6259    6261    6262    6263    6262    6264
    6265    6266    6265    6267    6268    6269    6268    6270
    6271    6272    6271    6273    6274    6275    6274    6276
    6277    6278    6277    6279    6280    6281    6280    6282
    6283    6284    6283    6285    6286    6287    6286    6288
    6289    6290    6289    6291    6292    6293    6292    6294
    6295    6296    6295    6297    6298    6299    6298    6300
    6301    6302    6301    6303    6304    6305    6304    6306
    6307    6308    6307    6309    6310    6311    6310    6312
    6313    6314    6313    6315    6316    6317    6316    6318
    6319    6320    6319    6321    6322    6323    6322    6324
    6325    6326    6325    6327    6328    6329    6328    6330
    6331    6332    6331    6333    6334    6335    6334    6336
    6337    6338    6337    6339    6340    6341    6340    6342
    6343    6344    6343    6345    6346    6347    6346    6348
    6349    6350    6349    6351    6352    6353    6352    6354
    6355    6356    6355    6357    6358    6359    6358    6360
    6361    6362    6361    6363    6364    6365    6364    6366
    6367    6368    6367    6369    6370    6371    6370    6372
    6373    6374    6373    6375    6376    6377    6376    6378
    6379    6380    6379    6381    6382    6383    6382    6384
    6385    6386    6385    6387    6388    6389    6388    6390
    6391    6392    6391    6393    6394    6395    6394    6396
    6397    6398    6397    6399    6400    6401    6400    6402
    6403    6404    6403    6405    6406    6407    6406    6408
    6409    6410    6409    6411    6412    6413    6412    6414
    6415    6416    6415    6417    6418    6419    6418    6420
    6421    6422    6421    6423    6424    6425    6424    6426
    6427    6428    6427    6429    6430    6431    6430    6432
    6433    6434    6433    6435    6436    6437    6436    6438
    6439    6440    6439    6441    6442    6443    6442    6444
    6445    6446    6445    6447    6448    6449    6448    6450
    6451    6452    6451    6453    6454    6455    6454    6456
    6457    6458    6457    6459    6460    6461    6460    6462
    6463    6464    6463    6465    6466    6467    6466    6468
    6469    6470    6469    6471    6472    6473    6472    6474
    6475    6476    6475    6477    6478    6479    6478    6480
    6481    6482    6481    6483    6484    6485    6484    6486
    6487    6488    6487    6489    6490    6491    6490    6492
    6493    6494    6493    6495    6496    6497    6496    6498
    6499    6500    6499    6501    6502    6503    6502    6504
    6505    6506    6505    6507    6508    6509    6508    6510
    6511    6512    6511    6513    6514    6515    6514    6516
    6517    6518    6517    6519    6520    6521    6520    6522
    6523    6524    6523    6525    6526    6527    6526    6528
    6529    6530    6529    6531    6532    6533    6532    6534
    6535    6536    6535    6537    6538    6539    6538    6540
    6541    6542    6541    6543    6544    6545    6544    6546
    6547    6548    6547    6549    6550    6551    6550    6552
    6553    6554    6553    6555    6556    6557    6556    6558
    6559    6560    6559    6561    6562    6563    6562    6564
    6565    6566    6565    6567    6568    6569    6568    6570
    6571    6572    6571    6573    6574    6575    6574    6576
    6577    6578    6577    6579    6580    6581    6580    6582
    6583    6584    6583    6585    6586    6587    6586    6588
    6589    6590    6589    6591    6592    6593    6592    6594
    6595    6596    6595    6597    6598    6599    6598    6600
    6601    6602    6601    6603    6604    6605    6604    6606
    6607    6608    6607    6609    6610    6611    6610    6612
    6613    6614    6613    6615    6616    6617    6616    6618
    6619    6620    6619    6621    6622    6623    6622    6624
    6625    6626    6625    6627    6628    6629    6628    6630
    6631    6632    6631    6633    6634    6635    6634    6636
    6637    6638    6637    6639    6640    6641    6640    6642
    6643    6644    6643    6645    6646    6647    6646    6648
    6649    6650    6649    6651    6652    6653    6652    6654
    6655    6656    6655    6657    6658    6659    6658    6660
    6661    6662    6661    6663    6664    6665    6664    6666
    6667    6668    6667    6669    6670    6671    6670    6672
    6673    6674    6673    6675    6676    6677    6676    6678
    6679    6680    6679    6681    6682    6683    6682    6684
    6685    6686    6685    6687    6688    6689    6688    6690
    6691    6692    6691    6693    6694    6695    6694    6696
    6697    6698    6697    6699    6700    6701    6700    6702
    6703    6704    6703    6705    6706    6707    6706    6708
    6709    6710    6709    6711    6712    6713    6712    6714
    6715    6716    6715    6717    6718    6719    6718    6720
    6721    6722    6721    6723    6724    6725    6724    6726
    6727    6728    6727    6729    6730    6731    6730    6732
    6733    6734    6733    6735    6736    6737    6736    6738
    6739    6740    6739    6741    6742    6743    6742    6744
    6745    6746    6745    6747    6748    6749    6748    6750
    6751    6752    6751    6753    6754    6755    6754    6756
    6757    6758    6757    6759    6760    6761    6760    6762
    6763    6764    6763    6765    6766    6767    6766    6768
    6769    6770    6769    6771    6772    6773    6772    6774
    6775    6776    6775    6777    6778    6779    6778    6780
    6781    6782    6781    6783    6784    6785    6784    6786
    6787    6788    6787    6789    6790    6791    6790    6792
    6793    6794    6793    6795    6796    6797    6796    6798
    6799    6800    6799    6801    6802    6803    6802    6804
    6805    6806    6805    6807    6808    6809    6808    6810
    6811    6812    6811    6813    6814    6815    6814    6816
    6817    6818    6817    6819    6820    6821    6820    6822
    6823    6824    6823    6825    6826    6827    6826    6828
    6829    6830    6829    6831    6832    6833    6832    6834
    6835    6836    6835    6837    6838    6839    6838    6840
    6841    6842    6841    6843    6844    6845    6844    6846
    6847    6848    6847    6849    6850    6851    6850    6852
    6853    6854    6853    6855    6856    6857    6856    6858
    6859    6860    6859    6861    6862    6863    6862    6864
    6865    6866    6865    6867    6868    6869    6868    6870
    6871    6872    6871    6873    6874    6875    6874    6876
    6877    6878    6877    6879    6880    6881    6880    6882
    6883    6884    6883    6885    6886    6887    6886    6888
    6889    6890    6889    6891    6892    6893    6892    6894
    6895    6896    6895    6897    6898    6899    6898    6900
    6901    6902    6901    6903    6904    6905    6904    6906
    6907    6908    6907    6909    6910    6911    6910    6912
    6913    6914    6913    6915    6916    6917    6916    6918
    6919    6920    6919    6921    6922    6923    6922    6924
    6925    6926    6925    6927    6928    6929    6928    6930
    6931    6932    6931    6933    6934    6935    6934    6936
    6937    6938    6937    6939    6940    6941    6940    6942
    6943    6944    6943    6945    6946    6947    6946    6948
    6949    6950    6949    6951    6952    6953    6952    6954
    6955    6956    6955    6957    6958    6959    6958    6960
    6961    6962    6961    6963    6964    6965    6964    6966
    6967    6968    6967    6969    6970    6971    6970    6972
    6973    6974    6973    6975    6976    6977    6976    6978
    6979    6980    6979    6981    6982    6983    6982    6984
    6985    6986    6985    6987    6988    6989    6988    6990
    6991    6992    6991    6993    6994    6995    6994    6996
    6997    6998    6997    6999    7000    7001    7000    7002
    7003    7004    7003    7005    7006    7007    7006    7008
    7009    7010    7009    7011    7012    7013    7012    7014
    7015    7016    7015    7017    7018    7019    7018    7020
    7021    7022    7021    7023    7024    7025    7024    7026
    7027    7028    7027    7029    7030    7031    7030    7032
    7033    7034    7033    7035    7036    7037    7036    7038
    7039    7040    7039    7041    7042    7043    7042    7044
    7045    7046    7045    7047    7048    7049    7048    7050
    7051    7052    7051    7053    7054    7055    7054    7056
    7057    7058    7057    7059    7060    7061    7060    7062
    7063    7064    7063    7065    7066    7067    7066    7068
    7069    7070    7069    7071    7072    7073    7072    7074
    7075    7076    7075    7077    7078    7079    7078    7080
    7081    7082    7081    7083    7084    7085    7084    7086
    7087    7088    7087    7089    7090    7091    7090    7092
    7093    7094    7093    7095    7096    7097    7096    7098
    7099    7100    7099    7101    7102    7103    7102    7104
    7105    7106    7105    7107    7108    7109    7108    7110
    7111    7112    7111    7113    7114    7115    7114    7116
    7117    7118    7117    7119    7120    7121    7120    7122
    7123    7124    7123    7125    7126    7127    7126    7128
    7129    7130    7129    7131    7132    7133    7132    7134
    7135    7136    7135    7137    7138    7139    7138    7140
    7141    7142    7141    7143    7144    7145    7144    7146
    7147    7148    7147    7149    7150    7151    7150    7152
    7153    7154    7153    7155    7156    7157    7156    7158
    7159    7160    7159    7161    7162    7163    7162    7164
    7165    7166    7165    7167    7168    7169    7168    7170
    7171    7172    7171    7173    7174    7175    7174    7176
    7177    7178    7177    7179    7180    7181    7180    7182
    7183    7184    7183    7185    7186    7187    7186    7188
    7189    7190    7189    7191    7192    7193    7192    7194
    7195    7196    7195    7197    7198    7199    7198    7200
    7201    7202    7201    7203    7204    7205    7204    7206
    7207    7208    7207    7209    7210    7211    7210    7212
    7213    7214    7213    7215    7216    7217    7216    7218
    7219    7220    7219    7221    7222    7223    7222    7224
    7225    7226    7225    7227    7228    7229    7228    7230
    7231    7232    7231    7233    7234    7235    7234    7236
    7237    7238    7237    7239    7240    7241    7240    7242
    7243    7244    7243    7245    7246    7247    7246    7248
    7249    7250    7249    7251    7252    7253    7252    7254
    7255    7256    7255    7257    7258    7259    7258    7260
    7261    7262    7261    7263    7264    7265    7264    7266
    7267    7268    7267    7269    7270    7271    7270    7272
    7273    7274    7273    7275    7276    7277    7276    7278
    7279    7280    7279    7281    7282    7283    7282    7284
    7285    7286    7285    7287    7288    7289    7288    7290
    7291    7292    7291    7293    7294    7295    7294    7296
    7297    7298    7297    7299    7300    7301    7300    7302
    7303    7304    7303    7305    7306    7307    7306    7308
    7309    7310    7309    7311    7312    7313    7312    7314
    7315    7316    7315    7317    7318    7319    7318    7320
    7321    7322    7321    7323    7324    7325    7324    7326
    7327    7328    7327    7329    7330    7331    7330    7332
    7333    7334    7333    7335    7336    7337    7336    7338
    7339    7340    7339    7341    7342    7343    7342    7344
    7345    7346    7345    7347    7348    7349    7348    7350
    7351    7352    7351    7353    7354    7355    7354    7356
    7357    7358    7357    7359    7360    7361    7360    7362
    7363    7364    7363    7365    7366    7367    7366    7368
    7369    7370    7369    7371    7372    7373    7372    7374
    7375    7376    7375    7377    7378    7379    7378    7380
    7381    7382    7381    7383    7384    7385    7384    7386
    7387    7388    7387    7389    7390    7391    7390    7392
    7393    7394    7393    7395    7396    7397    7396    7398
    7399    7400    7399    7401    7402    7403    7402    7404
    7405    7406    7405    7407    7408    7409    7408    7410
    7411    7412    7411    7413    7414    7415    7414    7416
    7417    7418    7417    7419    7420    7421    7420    7422
    7423    7424    7423    7425    7426    7427    7426    7428
    7429    7430    7429    7431    7432    7433    7432    7434
    7435    7436    7435    7437    7438    7439    7438    7440
    7441    7442    7441    7443    7444    7445    7444    7446
    7447    7448    7447    7449    7450    7451    7450    7452
    7453    7454    7453    7455    7456    7457    7456    7458
    7459    7460    7459    7461    7462    7463    7462    7464
    7465    7466    7465    7467    7468    7469    7468    7470
    7471    7472    7471    7473    7474    7475    7474    7476
    7477    7478    7477    7479    7480    7481    7480    7482
    7483    7484    7483    7485    7486    7487    7486    7488
    7489    7490    7489    7491    7492    7493    7492    7494
    7495    7496    7495    7497    7498    7499    7498    7500
    7501    7502    7501    7503    7504    7505    7504    7506
    7507    7508    7507    7509    7510    7511    7510    7512
    7513    7514    7513    7515    7516    7517    7516    7518
    7519    7520    7519    7521    7522    7523    7522    7524
    7525    7526    7525    7527    7528    7529    7528    7530
    7531    7532    7531    7533    7534    7535    7534    7536
    7537    7538    7537    7539    7540    7541    7540    7542
    7543    7544    7543    7545    7546    7547    7546    7548
    7549    7550    7549    7551    7552    7553    7552    7554
    7555    7556    7555    7557    7558    7559    7558    7560
    7561    7562    7561    7563    7564    7565    7564    7566
    7567    7568    7567    7569    7570    7571    7570    7572
    7573    7574    7573    7575    7576    7577    7576    7578
    7579    7580    7579    7581    7582    7583    7582    7584
    7585    7586    7585    7587    7588    7589    7588    7590
    7591    7592    7591    7593    7594    7595    7594    7596
    7597    7598    7597    7599    7600    7601    7600    7602
    7603    7604    7603    7605    7606    7607    7606    7608
    7609    7610    7609    7611    7612    7613    7612    7614
    7615    7616    7615    7617    7618    7619    7618    7620
    7621    7622    7621    7623    7624    7625    7624    7626
    7627    7628    7627    7629    7630    7631    7630    7632
    7633    7634    7633    7635    7636    7637    7636    7638
    7639    7640    7639    7641    7642    7643    7642    7644
    7645    7646    7645    7647    7648    7649    7648    7650
    7651    7652    7651    7653    7654    7655    7654    7656
    7657    7658    7657    7659    7660    7661    7660    7662
    7663    7664    7663    7665    7666    7667    7666    7668
    7669    7670    7669    7671    7672    7673    7672    7674
    7675    7676    7675    7677    7678    7679    7678    7680
    7681    7682    7681    7683    7684    7685    7684    7686
    7687    7688    7687    7689    7690    7691    7690    7692
    7693    7694    7693    7695    7696    7697    7696    7698
    7699    7700    7699    7701    7702    7703    7702    7704
    7705    7706    7705    7707    7708    7709    7708    7710
    7711    7712    7711    7713    7714    7715    7714    7716
    7717    7718    7717    7719    7720    7721    7720    7722
    7723    7724    7723    7725    7726    7727    7726    7728
    7729    7730    7729    7731    7732    7733    7732    7734
    7735    7736    7735    7737    7738    7739    7738    7740
    7741    7742    7741    7743    7744    7745    7744    7746
    7747    7748    7747    7749    7750    7751    7750    7752
    7753    7754    7753    7755    7756    7757    7756    7758
    7759    7760    7759    7761    7762    7763    7762    7764
    7765    7766    7765    7767    7768    7769    7768    7770
    7771    7772    7771    7773    7774    7775    7774    7776
    7777    7778    7777    7779    7780    7781    7780    7782
    7783    7784    7783    7785    7786    7787    7786    7788
    7789    7790    7789    7791    7792    7793    7792    7794
    7795    7796    7795    7797    7798    7799    7798    7800
    7801    7802    7801    7803    7804    7805    7804    7806
    7807    7808    7807    7809    7810    7811    7810    7812
    7813    7814    7813    7815    7816    7817    7816    7818
    7819    7820    7819    7821    7822    7823    7822    7824
    7825    7826    7825    7827    7828    7829    7828    7830
    7831    7832    7831    7833    7834    7835    7834    7836
    7837    7838    7837    7839    7840    7841    7840    7842
    7843    7844    7843    7845    7846    7847    7846    7848
    7849    7850    7849    7851    7852    7853    7852    7854
    7855    7856    7855    7857    7858    7859    7858    7860
    7861    7862    7861    7863    7864    7865    7864    7866
    7867    7868    7867    7869    7870    7871    7870    7872
    7873    7874    7873    7875    7876    7877    7876    7878
    7879    7880    7879    7881    7882    7883    7882    7884
    7885    7886    7885    7887    7888    7889    7888    7890
    7891    7892    7891    7893    7894    7895    7894    7896
    7897    7898    7897    7899    7900    7901    7900    7902
    7903    7904    7903    7905    7906    7907    7906    7908
    7909    7910    7909    7911    7912    7913    7912    7914
    7915    7916    7915    7917    7918    7919    7918    7920
    7921    7922    7921    7923    7924    7925    7924    7926
    7927    7928    7927    7929    7930    7931    7930    7932
    7933    7934    7933    7935    7936    7937    7936    7938
    7939    7940    7939    7941    7942    7943    7942    7944
    7945    7946    7945    7947    7948    7949    7948    7950
    7951    7952    7951    7953    7954    7955    7954    7956
    7957    7958    7957    7959    7960    7961    7960    7962
    7963    7964    7963    7965    7966    7967    7966    7968
    7969    7970    7969    7971    7972    7973    7972    7974
    7975    7976    7975    7977    7978    7979    7978    7980
    7981    7982    7981    7983    7984    7985    7984    7986
    7987    7988    7987    7989    7990    7991    7990    7992
    7993    7994    7993    7995    7996    7997    7996    7998
    7999    8000    7999    8001    8002    8003    8002    8004
    8005    8006    8005    8007    8008    8009    8008    8010
    8011    8012    8011    8013    8014    8015    8014    8016
    8017    8018    8017    8019    8020    8021    8020    8022
    8023    8024    8023    8025    8026    8027    8026    8028
    8029    8030    8029    8031    8032    8033    8032    8034
    8035    8036    8035    8037    8038    8039    8038    8040
    8041    8042    8041    8043    8044    8045    8044    8046
    8047    8048    8047    8049    8050    8051    8050    8052
    8053    8054    8053    8055    8056    8057    8056    8058
    8059    8060    8059    8061    8062    8063    8062    8064
    8065    8066    8065    8067    8068    8069    8068    8070
    8071    8072    8071    8073    8074    8075    8074    8076
    8077    8078    8077    8079    8080    8081    8080    8082
    8083    8084    8083    8085    8086    8087    8086    8088
    8089    8090    8089    8091    8092    8093    8092    8094
    8095    8096    8095    8097    8098    8099    8098    8100
    8101    8102    8101    8103    8104    8105    8104    8106
    8107    8108    8107    8109    8110    8111    8110    8112
    8113    8114    8113    8115    8116    8117    8116    8118
    8119    8120    8119    8121    8122    8123    8122    8124
    8125    8126    8125    8127    8128    8129    8128    8130
    8131    8132    8131    8133    8134    8135    8134    8136
    8137    8138    8137    8139    8140    8141    8140    8142
    8143    8144    8143    8145    8146    8147    8146    8148
    8149    8150    8149    8151    8152    8153    8152    8154
    8155    8156    8155    8157    8158    8159    8158    8160
    8161    8162    8161    8163    8164    8165    8164    8166
    8167    8168    8167    8169    8170    8171    8170    8172
    8173    8174    8173    8175    8176    8177    8176    8178
    8179    8180    8179    8181    8182    8183    8182    8184
    8185    8186    8185    8187    8188    8189    8188    8190
    8191    8192    8191    8193    8194    8195    8194    8196
    8197    8198    8197    8199    8200    8201    8200    8202
    8203    8204    8203    8205    8206    8207    8206    8208
    8209    8210    8209    8211    8212    8213    8212    8214
    8215    8216    8215    8217    8218    8219    8218    8220
    8221    8222    8221    8223    8224    8225    8224    8226
    8227    8228    8227    8229    8230    8231    8230    8232
    8233    8234    8233    8235    8236    8237    8236    8238
    8239    8240    8239    8241    8242    8243    8242    8244
    8245    8246    8245    8247    8248    8249    8248    8250
    8251    8252    8251    8253    8254    8255    8254    8256
    8257    8258    8257    8259    8260    8261    8260    8262
    8263    8264    8263    8265    8266    8267    8266    8268
    8269    8270    8269    8271    8272    8273    8272    8274
    8275    8276    8275    8277    8278    8279    8278    8280
    8281    8282    8281    8283    8284    8285    8284    8286
    8287    8288    8287    8289    8290    8291    8290    8292
    8293    8294    8293    8295    8296    8297    8296    8298
    8299    8300    8299    8301    8302    8303    8302    8304
    8305    8306    8305    8307    8308    8309    8308    8310
    8311    8312    8311    8313    8314    8315    8314    8316
    8317    8318    8317    8319    8320    8321    8320    8322
    8323    8324    8323    8325    8326    8327    8326    8328
    8329    8330    8329    8331    8332    8333    8332    8334
    8335    8336    8335    8337    8338    8339    8338    8340
    8341    8342    8341    8343    8344    8345    8344    8346
    8347    8348    8347    8349    8350    8351    8350    8352
    8353    8354    8353    8355    8356    8357    8356    8358
    8359    8360    8359    8361    8362    8363    8362    8364
    8365    8366    8365    8367    8368    8369    8368    8370
    8371    8372    8371    8373    8374    8375    8374    8376
    8377    8378    8377    8379    8380    8381    8380    8382
    8383    8384    8383    8385    8386    8387    8386    8388
    8389    8390    8389    8391    8392    8393    8392    8394
    8395    8396    8395    8397    8398    8399    8398    8400
    8401    8402    8401    8403    8404    8405    8404    8406
    8407    8408    8407    8409    8410    8411    8410    8412
    8413    8414    8413    8415    8416    8417    8416    8418
    8419    8420    8419    8421    8422    8423    8422    8424
    8425    8426    8425    8427    8428    8429    8428    8430
    8431    8432    8431    8433    8434    8435    8434    8436
    8437    8438    8437    8439    8440    8441    8440    8442
    8443    8444    8443    8445    8446    8447    8446    8448
    8449    8450    8449    8451    8452    8453    8452    8454
    8455    8456    8455    8457    8458    8459    8458    8460
    8461    8462    8461    8463    8464    8465    8464    8466
    8467    8468    8467    8469    8470    8471    8470    8472
    8473    8474    8473    8475    8476    8477    8476    8478
    8479    8480    8479    8481    8482    8483    8482    8484
    8485    8486    8485    8487    8488    8489    8488    8490
    8491    8492    8491    8493    8494    8495    8494    8496
    8497    8498    8497    8499    8500    8501    8500    8502
    8503    8504    8503    8505    8506    8507    8506    8508
    8509    8510    8509    8511    8512    8513    8512    8514
    8515    8516    8515    8517    8518    8519    8518    8520
    8521    8522    8521    8523    8524    8525    8524    8526
    8527    8528    8527    8529    8530    8531    8530    8532
    8533    8534    8533    8535    8536    8537    8536    8538
    8539    8540    8539    8541    8542    8543    8542    8544
    8545    8546    8545    8547    8548    8549    8548    8550
    8551    8552    8551    8553    8554    8555    8554    8556
    8557    8558    8557    8559    8560    8561    8560    8562
    8563    8564    8563    8565    8566    8567    8566    8568
    8569    8570    8569    8571    8572    8573    8572    8574
    8575    8576    8575    8577    8578    8579    8578    8580
    8581    8582    8581    8583    8584    8585    8584    8586
    8587    8588    8587    8589    8590    8591    8590    8592
    8593    8594    8593    8595    8596    8597    8596    8598
    8599    8600    8599    8601    8602    8603    8602    8604
    8605    8606    8605    8607    8608    8609    8608    8610
    8611    8612    8611    8613    8614    8615    8614    8616
    8617    8618    8617    8619    8620    8621    8620    8622
    8623    8624    8623    8625    8626    8627    8626    8628
    8629    8630    8629    8631    8632    8633    8632    8634
    8635    8636    8635    8637    8638    8639    8638    8640
    8641    8642    8641    8643    8644    8645    8644    8646
    8647    8648    8647    8649    8650    8651    8650    8652
    8653    8654    8653    8655    8656    8657    8656    8658
    8659    8660    8659    8661    8662    8663    8662    8664
    8665    8666    8665    8667    8668    8669    8668    8670
    8671    8672    8671    8673    8674    8675    8674    8676
    8677    8678    8677    8679    8680    8681    8680    8682
    8683    8684    8683    8685    8686    8687    8686    8688
    8689    8690    8689    8691    8692    8693    8692    8694
    8695    8696    8695    8697    8698    8699    8698    8700
    8701    8702    8701    8703    8704    8705    8704    8706
    8707    8708    8707    8709    8710    8711    8710    8712
    8713    8714    8713    8715    8716    8717    8716    8718
    8719    8720    8719    8721    8722    8723    8722    8724
    8725    8726    8725    8727    8728    8729    8728    8730
    8731    8732    8731    8733    8734    8735    8734    8736
    8737    8738    8737    8739    8740    8741    8740    8742
    8743    8744    8743    8745    8746    8747    8746    8748
    8749    8750    8749    8751    8752    8753    8752    8754
    8755    8756    8755    8757    8758    8759    8758    8760
    8761    8762    8761    8763    8764    8765    8764    8766
    8767    8768    8767    8769    8770    8771    8770    8772
    8773    8774    8773    8775    8776    8777    8776    8778
    8779    8780    8779    8781    8782    8783    8782    8784
    8785    8786    8785    8787    8788    8789    8788    8790
    8791    8792    8791    8793    8794    8795    8794    8796
    8797    8798    8797    8799    8800    8801    8800    8802
    8803    8804    8803    8805    8806    8807    8806    8808
    8809    8810    8809    8811    8812    8813    8812    8814
    8815    8816    8815    8817    8818    8819    8818    8820
    8821    8822    8821    8823    8824    8825    8824    8826
    8827    8828    8827    8829    8830    8831    8830    8832
    8833    8834    8833    8835    8836    8837    8836    8838
    8839    8840    8839    8841    8842    8843    8842    8844
    8845    8846    8845    8847    8848    8849    8848    8850
    8851    8852    8851    8853    8854    8855    8854    8856
    8857    8858    8857    8859    8860    8861    8860    8862
    8863    8864    8863    8865    8866    8867    8866    8868
    8869    8870    8869    8871    8872    8873    8872    8874
    8875    8876    8875    8877    8878    8879    8878    8880
    8881    8882    8881    8883    8884    8885    8884    8886
    8887    8888    8887    8889    8890    8891    8890    8892
    8893    8894    8893    8895    8896    8897    8896    8898
    8899    8900    8899    8901    8902    8903    8902    8904
    8905    8906    8905    8907    8908    8909    8908    8910
    8911    8912    8911    8913    8914    8915    8914    8916
    8917    8918    8917    8919    8920    8921    8920    8922
    8923    8924    8923    8925    8926    8927    8926    8928
    8929    8930    8929    8931    8932    8933    8932    8934
    8935    8936    8935    8937    8938    8939    8938    8940
    8941    8942    8941    8943    8944    8945    8944    8946
    8947    8948    8947    8949    8950    8951    8950    8952
    8953    8954    8953    8955    8956    8957    8956    8958
    8959    8960    8959    8961    8962    8963    8962    8964
    8965    8966    8965    8967    8968    8969    8968    8970
    8971    8972    8971    8973    8974    8975    8974    8976
    8977    8978    8977    8979    8980    8981    8980    8982
    8983    8984    8983    8985    8986    8987    8986    8988
    8989    8990    8989    8991    8992    8993    8992    8994
    8995    8996    8995    8997    8998    8999    8998    9000
    9001    9002    9001    9003    9004    9005    9004    9006
    9007    9008    9007    9009    9010    9011    9010    9012
    9013    9014    9013    9015    9016    9017    9016    9018
    9019    9020    9019    9021    9022    9023    9022    9024
    9025    9026    9025    9027    9028    9029    9028    9030
    9031    9032    9031    9033    9034    9035    9034    9036
    9037    9038    9037    9039    9040    9041    9040    9042
    9043    9044    9043    9045    9046    9047    9046    9048
    9049    9050    9049    9051    9052    9053    9052    9054
    9055    9056    9055    9057    9058    9059    9058    9060
    9061    9062    9061    9063    9064    9065    9064    9066
    9067    9068    9067    9069    9070    9071    9070    9072
    9073    9074    9073    9075    9076    9077    9076    9078
    9079    9080    9079    9081    9082    9083    9082    9084
    9085    9086    9085    9087    9088    9089    9088    9090
    9091    9092    9091    9093    9094    9095    9094    9096
    9097    9098    9097    9099    9100    9101    9100    9102
    9103    9104    9103    9105    9106    9107    9106    9108
    9109    9110    9109    9111    9112    9113    9112    9114
    9115    9116    9115    9117    9118    9119    9118    9120
    9121    9122    9121    9123    9124    9125    9124    9126
    9127    9128    9127    9129    9130    9131    9130    9132
    9133    9134    9133    9135    9136    9137    9136    9138
    9139    9140    9139    9141    9142    9143    9142    9144
    9145    9146    9145    9147    9148    9149    9148    9150
    9151    9152    9151    9153    9154    9155    9154    9156
    9157    9158    9157    9159    9160    9161    9160    9162
    9163    9164    9163    9165    9166    9167    9166    9168
    9169    9170    9169    9171    9172    9173    9172    9174
    9175    9176    9175    9177    9178    9179    9178    9180
    9181    9182    9181    9183    9184    9185    9184    9186
    9187    9188    9187    9189    9190    9191    9190    9192
    9193    9194    9193    9195    9196    9197    9196    9198
    9199    9200    9199    9201    9202    9203    9202    9204
    9205    9206    9205    9207    9208    9209    9208    9210
    9211    9212    9211    9213    9214    9215    9214    9216
    9217    9218    9217    9219    9220    9221    9220    9222
    9223    9224    9223    9225    9226    9227    9226    9228
    9229    9230    9229    9231    9232    9233    9232    9234
    9235    9236    9235    9237    9238    9239    9238    9240
    9241    9242    9241    9243    9244    9245    9244    9246
    9247    9248    9247    9249    9250    9251    9250    9252
    9253    9254    9253    9255    9256    9257    9256    9258
    9259    9260    9259    9261    9262    9263    9262    9264
    9265    9266    9265    9267    9268    9269    9268    9270
    9271    9272    9271    9273    9274    9275    9274    9276
    9277    9278    9277    9279    9280    9281    9280    9282
    9283    9284    9283    9285    9286    9287    9286    9288
    9289    9290    9289    9291    9292    9293    9292    9294
    9295    9296    9295    9297    9298    9299    9298    9300
    9301    9302    9301    9303    9304    9305    9304    9306
    9307    9308    9307    9309    9310    9311    9310    9312
    9313    9314    9313    9315    9316    9317    9316    9318
    9319    9320    9319    9321    9322    9323    9322    9324
    9325    9326    9325    9327    9328    9329    9328    9330
    9331    9332    9331    9333    9334    9335    9334    9336
    9337    9338    9337    9339    9340    9341    9340    9342
    9343    9344    9343    9345    9346    9347    9346    9348
    9349    9350    9349    9351    9352    9353    9352    9354
    9355    9356    9355    9357    9358    9359    9358    9360
    9361    9362    9361    9363    9364    9365    9364    9366
    9367    9368    9367    9369    9370    9371    9370    9372
    9373    9374    9373    9375    9376    9377    9376    9378
    9379    9380    9379    9381    9382    9383    9382    9384
    9385    9386    9385    9387    9388    9389    9388    9390
    9391    9392    9391    9393    9394    9395    9394    9396
    9397    9398    9397    9399    9400    9401    9400    9402
    9403    9404    9403    9405    9406    9407    9406    9408
    9409    9410    9409    9411    9412    9413    9412    9414
    9415    9416    9415    9417    9418    9419    9418    9420
    9421    9422    9421    9423    9424    9425    9424    9426
    9427    9428    9427    9429    9430    9431    9430    9432
    9433    9434    9433    9435    9436    9437    9436    9438
    9439    9440    9439    9441    9442    9443    9442    9444
    9445    9446    9445    9447    9448    9449    9448    9450
    9451    9452    9451    9453    9454    9455    9454    9456
    9457    9458    9457    9459    9460    9461    9460    9462
    9463    9464    9463    9465    9466    9467    9466    9468
    9469    9470    9469    9471    9472    9473    9472    9474
    9475    9476    9475    9477    9478    9479    9478    9480
    9481    9482    9481    9483    9484    9485    9484    9486
    9487    9488    9487    9489    9490    9491    9490    9492
    9493    9494    9493    9495    9496    9497    9496    9498
    9499    9500    9499    9501    9502    9503    9502    9504
    9505    9506    9505    9507    9508    9509    9508    9510
    9511    9512    9511    9513    9514    9515    9514    9516
    9517    9518    9517    9519    9520    9521    9520    9522
    9523    9524    9523    9525    9526    9527    9526    9528
    9529    9530    9529    9531    9532    9533    9532    9534
    9535    9536    9535    9537    9538    9539    9538    9540
    9541    9542    9541    9543    9544    9545    9544    9546
    9547    9548    9547    9549    9550    9551    9550    9552
    9553    9554    9553    9555    9556    9557    9556    9558
    9559    9560    9559    9561    9562    9563    9562    9564
    9565    9566    9565    9567    9568    9569    9568    9570
    9571    9572    9571    9573    9574    9575    9574    9576
    9577    9578    9577    9579    9580    9581    9580    9582
    9583    9584    9583    9585    9586    9587    9586    9588
    9589    9590    9589    9591    9592    9593    9592    9594
    9595    9596    9595    9597    9598    9599    9598    9600
    9601    9602    9601    9603    9604    9605    9604    9606
    9607    9608    9607    9609    9610    9611    9610    9612
    9613    9614    9613    9615    9616    9617    9616    9618
    9619    9620    9619    9621    9622    9623    9622    9624
    9625    9626    9625    9627    9628    9629    9628    9630
    9631    9632    9631    9633    9634    9635    9634    9636
    9637    9638    9637    9639    9640    9641    9640    9642
    9643    9644    9643    9645    9646    9647    9646    9648
    9649    9650    9649    9651    9652    9653    9652    9654
    9655    9656    9655    9657    9658    9659    9658    9660
    9661    9662    9661    9663    9664    9665    9664    9666
    9667    9668    9667    9669    9670    9671    9670    9672
    9673    9674    9673    9675    9676    9677    9676    9678
    9679    9680    9679    9681    9682    9683    9682    9684
    9685    9686    9685    9687    9688    9689    9688    9690
    9691    9692    9691    9693    9694    9695    9694    9696
    9697    9698    9697    9699    9700    9701    9700    9702
    9703    9704    9703    9705    9706    9707    9706    9708
    9709    9710    9709    9711    9712    9713    9712    9714
    9715    9716    9715    9717    9718    9719    9718    9720
    9721    9722    9721    9723    9724    9725    9724    9726
    9727    9728    9727    9729    9730    9731    9730    9732
    9733    9734    9733    9735    9736    9737    9736    9738
    9739    9740    9739    9741    9742    9743    9742    9744
    9745    9746    9745    9747    9748    9749    9748    9750
    9751    9752    9751    9753    9754    9755    9754    9756
    9757    9758    9757    9759    9760    9761    9760    9762
    9763    9764    9763    9765    9766    9767    9766    9768
    9769    9770    9769    9771    9772    9773    9772    9774
    9775    9776    9775    9777    9778    9779    9778    9780
    9781    9782    9781    9783    9784    9785    9784    9786
    9787    9788    9787    9789    9790    9791    9790    9792
    9793    9794    9793    9795    9796    9797    9796    9798
    9799    9800    9799    9801    9802    9803    9802    9804
    9805    9806    9805    9807    9808    9809    9808    9810
    9811    9812    9811    9813    9814    9815    9814    9816
    9817    9818    9817    9819    9820    9821    9820    9822
    9823    9824    9823    9825    9826    9827    9826    9828
    9829    9830    9829    9831    9832    9833    9832    9834
    9835    9836    9835    9837    9838    9839    9838    9840
    9841    9842    9841    9843    9844    9845    9844    9846
    9847    9848    9847    9849    9850    9851    9850    9852
    9853    9854    9853    9855    9856    9857    9856    9858
    9859    9860    9859    9861    9862    9863    9862    9864
    9865    9866    9865    9867    9868    9869    9868    9870
    9871    9872    9871    9873    9874    9875    9874    9876
    9877    9878    9877    9879    9880    9881    9880    9882
    9883    9884    9883    9885    9886    9887    9886    9888
    9889    9890    9889    9891    9892    9893    9892    9894
    9895    9896    9895    9897    9898    9899    9898    9900
    9901    9902    9901    9903    9904    9905    9904    9906
    9907    9908    9907    9909    9910    9911    9910    9912
    9913    9914    9913    9915    9916    9917    9916    9918
    9919    9920    9919    9921    9922    9923    9922    9924
    9925    9926    9925    9927    9928    9929    9928    9930
    9931    9932    9931    9933    9934    9935    9934    9936
    9937    9938    9937    9939    9940    9941    9940    9942
    9943    9944    9943    9945    9946    9947    9946    9948
    9949    9950    9949    9951    9952    9953    9952    9954
    9955    9956    9955    9957    9958    9959    9958    9960
    9961    9962    9961    9963    9964    9965    9964    9966
    9967    9968    9967    9969    9970    9971    9970    9972
    9973    9974    9973    9975    9976    9977    9976    9978
    9979    9980    9979    9981    9982    9983    9982    9984
    9985    9986    9985    9987    9988    9989    9988    9990
    9991    9992    9991    9993    9994    9995    9994    9996
    9997    9998    9997    9999   10000   10001   10000   10002
   10003   10004   10003   10005   10006   10007   10006   10008
   10009   10010   10009   10011   10012   10013   10012   10014
   10015   10016   10015   10017   10018   10019   10018   10020
   10021   10022   10021   10023   10024   10025   10024   10026
   10027   10028   10027   10029   10030   10031   10030   10032
   10033   10034   10033   10035   10036   10037   10036   10038
   10039   10040   10039   10041   10042   10043   10042   10044
   10045   10046   10045   10047   10048   10049   10048   10050
   10051   10052   10051   10053   10054   10055   10054   10056
   10057   10058   10057   10059   10060   10061   10060   10062
   10063   10064   10063   10065   10066   10067   10066   10068
   10069   10070   10069   10071   10072   10073   10072   10074
   10075   10076   10075   10077   10078   10079   10078   10080
   10081   10082   10081   10083   10084   10085   10084   10086
   10087   10088   10087   10089   10090   10091   10090   10092
   10093   10094   10093   10095   10096   10097   10096   10098
   10099   10100   10099   10101   10102   10103   10102   10104
   10105   10106   10105   10107   10108   10109   10108   10110
   10111   10112   10111   10113   10114   10115   10114   10116
   10117   10118   10117   10119   10120   10121   10120   10122
   10123   10124   10123   10125   10126   10127   10126   10128
   10129   10130   10129   10131   10132   10133   10132   10134
   10135   10136   10135   10137   10138   10139   10138   10140
   10141   10142   10141   10143   10144   10145   10144   10146
   10147   10148   10147   10149   10150   10151   10150   10152
   10153   10154   10153   10155   10156   10157   10156   10158
   10159   10160   10159   10161   10162   10163   10162   10164
   10165   10166   10165   10167   10168   10169   10168   10170
   10171   10172   10171   10173   10174   10175   10174   10176
   10177   10178   10177   10179   10180   10181   10180   10182
   10183   10184   10183   10185   10186   10187   10186   10188
   10189   10190   10189   10191   10192   10193   10192   10194
   10195   10196   10195   10197   10198   10199   10198   10200
   10201   10202   10201   10203   10204   10205   10204   10206
   10207   10208   10207   10209   10210   10211   10210   10212
   10213   10214   10213   10215   10216   10217   10216   10218
   10219   10220   10219   10221   10222   10223   10222   10224
   10225   10226   10225   10227   10228   10229   10228   10230
   10231   10232   10231   10233   10234   10235   10234   10236
   10237   10238   10237   10239   10240   10241   10240   10242
   10243   10244   10243   10245   10246   10247   10246   10248
   10249   10250   10249   10251   10252   10253   10252   10254
   10255   10256   10255   10257   10258   10259   10258   10260
   10261   10262   10261   10263   10264   10265   10264   10266
   10267   10268   10267   10269   10270   10271   10270   10272
   10273   10274   10273   10275   10276   10277   10276   10278
   10279   10280   10279   10281   10282   10283   10282   10284
   10285   10286   10285   10287   10288   10289   10288   10290
   10291   10292   10291   10293   10294   10295   10294   10296
   10297   10298   10297   10299   10300   10301   10300   10302
   10303   10304   10303   10305   10306   10307   10306   10308
   10309   10310   10309   10311   10312   10313   10312   10314
   10315   10316   10315   10317   10318   10319   10318   10320
   10321   10322   10321   10323   10324   10325   10324   10326
   10327   10328   10327   10329   10330   10331   10330   10332
   10333   10334   10333   10335   10336   10337   10336   10338
   10339   10340   10339   10341   10342   10343   10342   10344
   10345   10346   10345   10347   10348   10349   10348   10350
   10351   10352   10351   10353   10354   10355   10354   10356
   10357   10358   10357   10359   10360   10361   10360   10362
   10363   10364   10363   10365   10366   10367   10366   10368
   10369   10370   10369   10371   10372   10373   10372   10374
   10375   10376   10375   10377   10378   10379   10378   10380
   10381   10382   10381   10383   10384   10385   10384   10386
   10387   10388   10387   10389   10390   10391   10390   10392
   10393   10394   10393   10395   10396   10397   10396   10398
   10399   10400   10399   10401   10402   10403   10402   10404
   10405   10406   10405   10407   10408   10409   10408   10410
   10411   10412   10411   10413   10414   10415   10414   10416
   10417   10418   10417   10419   10420   10421   10420   10422
   10423   10424   10423   10425   10426   10427   10426   10428
   10429   10430   10429   10431   10432   10433   10432   10434
   10435   10436   10435   10437   10438   10439   10438   10440
   10441   10442   10441   10443   10444   10445   10444   10446
   10447   10448   10447   10449   10450   10451   10450   10452
   10453   10454   10453   10455   10456   10457   10456   10458
   10459   10460   10459   10461   10462   10463   10462   10464
   10465   10466   10465   10467   10468   10469   10468   10470
   10471   10472   10471   10473   10474   10475   10474   10476
   10477   10478   10477   10479   10480   10481   10480   10482
   10483   10484   10483   10485   10486   10487   10486   10488
   10489   10490   10489   10491   10492   10493   10492   10494
   10495   10496   10495   10497   10498   10499   10498   10500
   10501   10502   10501   10503   10504   10505   10504   10506
   10507   10508   10507   10509   10510   10511   10510   10512
   10513   10514   10513   10515   10516   10517   10516   10518
   10519   10520   10519   10521   10522   10523   10522   10524
   10525   10526   10525   10527   10528   10529   10528   10530
   10531   10532   10531   10533   10534   10535   10534   10536
   10537   10538   10537   10539   10540   10541   10540   10542
   10543   10544   10543   10545   10546   10547   10546   10548
   10549   10550   10549   10551   10552   10553   10552   10554
   10555   10556   10555   10557   10558   10559   10558   10560
   10561   10562   10561   10563   10564   10565   10564   10566
   10567   10568   10567   10569   10570   10571   10570   10572
   10573   10574   10573   10575   10576   10577   10576   10578
   10579   10580   10579   10581   10582   10583   10582   10584
   10585   10586   10585   10587   10588   10589   10588   10590
   10591   10592   10591   10593   10594   10595   10594   10596
   10597   10598   10597   10599   10600   10601   10600   10602
   10603   10604   10603   10605   10606   10607   10606   10608
   10609   10610   10609   10611   10612   10613   10612   10614
   10615   10616   10615   10617   10618   10619   10618   10620
   10621   10622   10621   10623   10624   10625   10624   10626
   10627   10628   10627   10629   10630   10631   10630   10632
   10633   10634   10633   10635   10636   10637   10636   10638
   10639   10640   10639   10641   10642   10643   10642   10644
   10645   10646   10645   10647   10648   10649   10648   10650
   10651   10652   10651   10653   10654   10655   10654   10656
   10657   10658   10657   10659   10660   10661   10660   10662
   10663   10664   10663   10665   10666   10667   10666   10668
   10669   10670   10669   10671   10672   10673   10672   10674
   10675   10676   10675   10677   10678   10679   10678   10680
   10681   10682   10681   10683   10684   10685   10684   10686
   10687   10688   10687   10689   10690   10691   10690   10692
   10693   10694   10693   10695   10696   10697   10696   10698
   10699   10700   10699   10701   10702   10703   10702   10704
   10705   10706   10705   10707   10708   10709   10708   10710
   10711   10712   10711   10713   10714   10715   10714   10716
   10717   10718   10717   10719   10720   10721   10720   10722
   10723   10724   10723   10725   10726   10727   10726   10728
   10729   10730   10729   10731   10732   10733   10732   10734
   10735   10736   10735   10737   10738   10739   10738   10740
   10741   10742   10741   10743   10744   10745   10744   10746
   10747   10748   10747   10749   10750   10751   10750   10752
   10753   10754   10753   10755   10756   10757   10756   10758
   10759   10760   10759   10761   10762   10763   10762   10764
   10765   10766   10765   10767   10768   10769   10768   10770
   10771   10772   10771   10773   10774   10775   10774   10776
   10777   10778   10777   10779   10780   10781   10780   10782
   10783   10784   10783   10785   10786   10787   10786   10788
   10789   10790   10789   10791   10792   10793   10792   10794
   10795   10796   10795   10797   10798   10799   10798   10800
   10801   10802   10801   10803   10804   10805   10804   10806
   10807   10808   10807   10809   10810   10811   10810   10812
   10813   10814   10813   10815   10816   10817   10816   10818
   10819   10820   10819   10821   10822   10823   10822   10824
   10825   10826   10825   10827   10828   10829   10828   10830
   10831   10832   10831   10833   10834   10835   10834   10836
   10837   10838   10837   10839   10840   10841   10840   10842
   10843   10844   10843   10845   10846   10847   10846   10848
   10849   10850   10849   10851   10852   10853   10852   10854
   10855   10856   10855   10857   10858   10859   10858   10860
   10861   10862   10861   10863   10864   10865   10864   10866
   10867   10868   10867   10869   10870   10871   10870   10872
   10873   10874   10873   10875   10876   10877   10876   10878
   10879   10880   10879   10881   10882   10883   10882   10884
   10885   10886   10885   10887   10888   10889   10888   10890
   10891   10892   10891   10893   10894   10895   10894   10896
   10897   10898   10897   10899   10900   10901   10900   10902
   10903   10904   10903   10905   10906   10907   10906   10908
   10909   10910   10909   10911   10912   10913   10912   10914
   10915   10916   10915   10917   10918   10919   10918   10920
   10921   10922   10921   10923   10924   10925   10924   10926
   10927   10928   10927   10929   10930   10931   10930   10932
   10933   10934   10933   10935   10936   10937   10936   10938
   10939   10940   10939   10941   10942   10943   10942   10944
   10945   10946   10945   10947   10948   10949   10948   10950
   10951   10952   10951   10953   10954   10955   10954   10956
   10957   10958   10957   10959   10960   10961   10960   10962
   10963   10964   10963   10965   10966   10967   10966   10968
   10969   10970   10969   10971   10972   10973   10972   10974
   10975   10976   10975   10977   10978   10979   10978   10980
   10981   10982   10981   10983   10984   10985   10984   10986
   10987   10988   10987   10989   10990   10991   10990   10992
   10993   10994   10993   10995   10996   10997   10996   10998
   10999   11000   10999   11001   11002   11003   11002   11004
   11005   11006   11005   11007   11008   11009   11008   11010
   11011   11012   11011   11013   11014   11015   11014   11016
   11017   11018   11017   11019   11020   11021   11020   11022
   11023   11024   11023   11025   11026   11027   11026   11028
   11029   11030   11029   11031   11032   11033   11032   11034
   11035   11036   11035   11037   11038   11039   11038   11040
   11041   11042   11041   11043   11044   11045   11044   11046
   11047   11048   11047   11049   11050   11051   11050   11052
   11053   11054   11053   11055   11056   11057   11056   11058
   11059   11060   11059   11061   11062   11063   11062   11064
   11065   11066   11065   11067   11068   11069   11068   11070
   11071   11072   11071   11073   11074   11075   11074   11076
   11077   11078   11077   11079   11080   11081   11080   11082
   11083   11084   11083   11085   11086   11087   11086   11088
   11089   11090   11089   11091   11092   11093   11092   11094
   11095   11096   11095   11097   11098   11099   11098   11100
   11101   11102   11101   11103   11104   11105   11104   11106
   11107   11108   11107   11109   11110   11111   11110   11112
   11113   11114   11113   11115   11116   11117   11116   11118
   11119   11120   11119   11121   11122   11123   11122   11124
   11125   11126   11125   11127   11128   11129   11128   11130
   11131   11132   11131   11133   11134   11135   11134   11136
   11137   11138   11137   11139   11140   11141   11140   11142
   11143   11144   11143   11145   11146   11147   11146   11148
   11149   11150   11149   11151   11152   11153   11152   11154
   11155   11156   11155   11157   11158   11159   11158   11160
   11161   11162   11161   11163   11164   11165   11164   11166
   11167   11168   11167   11169   11170   11171   11170   11172
   11173   11174   11173   11175   11176   11177   11176   11178
   11179   11180   11179   11181   11182   11183   11182   11184
   11185   11186   11185   11187   11188   11189   11188   11190
   11191   11192   11191   11193   11194   11195   11194   11196
   11197   11198   11197   11199   11200   11201   11200   11202
   11203   11204   11203   11205   11206   11207   11206   11208
   11209   11210   11209   11211   11212   11213   11212   11214
   11215   11216   11215   11217   11218   11219   11218   11220
   11221   11222   11221   11223   11224   11225   11224   11226
   11227   11228   11227   11229   11230   11231   11230   11232
   11233   11234   11233   11235   11236   11237   11236   11238
   11239   11240   11239   11241   11242   11243   11242   11244
   11245   11246   11245   11247   11248   11249   11248   11250
   11251   11252   11251   11253   11254   11255   11254   11256
   11257   11258   11257   11259   11260   11261   11260   11262
   11263   11264   11263   11265   11266   11267   11266   11268
   11269   11270   11269   11271   11272   11273   11272   11274
   11275   11276   11275   11277   11278   11279   11278   11280
   11281   11282   11281   11283   11284   11285   11284   11286
   11287   11288   11287   11289   11290   11291   11290   11292
   11293   11294   11293   11295   11296   11297   11296   11298
   11299   11300   11299   11301   11302   11303   11302   11304
   11305   11306   11305   11307   11308   11309   11308   11310
   11311   11312   11311   11313   11314   11315   11314   11316
   11317   11318   11317   11319   11320   11321   11320   11322
   11323   11324   11323   11325   11326   11327   11326   11328
   11329   11330   11329   11331   11332   11333   11332   11334
   11335   11336   11335   11337   11338   11339   11338   11340
   11341   11342   11341   11343   11344   11345   11344   11346
   11347   11348   11347   11349   11350   11351   11350   11352
   11353   11354   11353   11355   11356   11357   11356   11358
   11359   11360   11359   11361   11362   11363   11362   11364
   11365   11366   11365   11367   11368   11369   11368   11370
   11371   11372   11371   11373   11374   11375   11374   11376
   11377   11378   11377   11379   11380   11381   11380   11382
   11383   11384   11383   11385   11386   11387   11386   11388
   11389   11390   11389   11391   11392   11393   11392   11394
   11395   11396   11395   11397   11398   11399   11398   11400
   11401   11402   11401   11403   11404   11405   11404   11406
   11407   11408   11407   11409   11410   11411   11410   11412
   11413   11414   11413   11415   11416   11417   11416   11418
   11419   11420   11419   11421   11422   11423   11422   11424
   11425   11426   11425   11427   11428   11429   11428   11430
   11431   11432   11431   11433   11434   11435   11434   11436
   11437   11438   11437   11439   11440   11441   11440   11442
   11443   11444   11443   11445   11446   11447   11446   11448
   11449   11450   11449   11451   11452   11453   11452   11454
   11455   11456   11455   11457   11458   11459   11458   11460
   11461   11462   11461   11463   11464   11465   11464   11466
   11467   11468   11467   11469   11470   11471   11470   11472
   11473   11474   11473   11475   11476   11477   11476   11478
   11479   11480   11479   11481   11482   11483   11482   11484
   11485   11486   11485   11487   11488   11489   11488   11490
   11491   11492   11491   11493   11494   11495   11494   11496
   11497   11498   11497   11499   11500   11501   11500   11502
   11503   11504   11503   11505   11506   11507   11506   11508
   11509   11510   11509   11511   11512   11513   11512   11514
   11515   11516   11515   11517   11518   11519   11518   11520
   11521   11522   11521   11523   11524   11525   11524   11526
   11527   11528   11527   11529   11530   11531   11530   11532
   11533   11534   11533   11535   11536   11537   11536   11538
   11539   11540   11539   11541   11542   11543   11542   11544
   11545   11546   11545   11547   11548   11549   11548   11550
   11551   11552   11551   11553   11554   11555   11554   11556
   11557   11558   11557   11559   11560   11561   11560   11562
   11563   11564   11563   11565   11566   11567   11566   11568
   11569   11570   11569   11571   11572   11573   11572   11574
   11575   11576   11575   11577   11578   11579   11578   11580
   11581   11582   11581   11583   11584   11585   11584   11586
   11587   11588   11587   11589   11590   11591   11590   11592
   11593   11594   11593   11595   11596   11597   11596   11598
   11599   11600   11599   11601   11602   11603   11602   11604
   11605   11606   11605   11607   11608   11609   11608   11610
   11611   11612   11611   11613   11614   11615   11614   11616
   11617   11618   11617   11619   11620   11621   11620   11622
   11623   11624   11623   11625   11626   11627   11626   11628
   11629   11630   11629   11631   11632   11633   11632   11634
   11635   11636   11635   11637   11638   11639   11638   11640
   11641   11642   11641   11643   11644   11645   11644   11646
   11647   11648   11647   11649   11650   11651   11650   11652
   11653   11654   11653   11655   11656   11657   11656   11658
   11659   11660   11659   11661   11662   11663   11662   11664
   11665   11666   11665   11667   11668   11669   11668   11670
   11671   11672   11671   11673   11674   11675   11674   11676
   11677   11678   11677   11679   11680   11681   11680   11682
   11683   11684   11683   11685   11686   11687   11686   11688
   11689   11690   11689   11691   11692   11693   11692   11694
   11695   11696   11695   11697   11698   11699   11698   11700
   11701   11702   11701   11703   11704   11705   11704   11706
   11707   11708   11707   11709   11710   11711   11710   11712
   11713   11714   11713   11715   11716   11717   11716   11718
   11719   11720   11719   11721   11722   11723   11722   11724
   11725   11726   11725   11727   11728   11729   11728   11730
   11731   11732   11731   11733   11734   11735   11734   11736
   11737   11738   11737   11739   11740   11741   11740   11742
   11743   11744   11743   11745   11746   11747   11746   11748
   11749   11750   11749   11751   11752   11753   11752   11754
   11755   11756   11755   11757   11758   11759   11758   11760
   11761   11762   11761   11763   11764   11765   11764   11766
   11767   11768   11767   11769   11770   11771   11770   11772
   11773   11774   11773   11775   11776   11777   11776   11778
   11779   11780   11779   11781   11782   11783   11782   11784
   11785   11786   11785   11787   11788   11789   11788   11790
   11791   11792   11791   11793   11794   11795   11794   11796
   11797   11798   11797   11799   11800   11801   11800   11802
   11803   11804   11803   11805   11806   11807   11806   11808
   11809   11810   11809   11811   11812   11813   11812   11814
   11815   11816   11815   11817   11818   11819   11818   11820
   11821   11822   11821   11823   11824   11825   11824   11826
   11827   11828   11827   11829   11830   11831   11830   11832
   11833   11834   11833   11835   11836   11837   11836   11838
   11839   11840   11839   11841   11842   11843   11842   11844
   11845   11846   11845   11847   11848   11849   11848   11850
   11851   11852   11851   11853   11854   11855   11854   11856
   11857   11858   11857   11859   11860   11861   11860   11862
   11863   11864   11863   11865   11866   11867   11866   11868
   11869   11870   11869   11871   11872   11873   11872   11874
   11875   11876   11875   11877   11878   11879   11878   11880
   11881   11882   11881   11883   11884   11885   11884   11886
   11887   11888   11887   11889   11890   11891   11890   11892
   11893   11894   11893   11895   11896   11897   11896   11898
   11899   11900   11899   11901   11902   11903   11902   11904
   11905   11906   11905   11907   11908   11909   11908   11910
   11911   11912   11911   11913   11914   11915   11914   11916
   11917   11918   11917   11919   11920   11921   11920   11922
   11923   11924   11923   11925   11926   11927   11926   11928
   11929   11930   11929   11931   11932   11933   11932   11934
   11935   11936   11935   11937   11938   11939   11938   11940
   11941   11942   11941   11943   11944   11945   11944   11946
   11947   11948   11947   11949   11950   11951   11950   11952
   11953   11954   11953   11955   11956   11957   11956   11958
   11959   11960   11959   11961   11962   11963   11962   11964
   11965   11966   11965   11967   11968   11969   11968   11970
   11971   11972   11971   11973   11974   11975   11974   11976
   11977   11978   11977   11979   11980   11981   11980   11982
   11983   11984   11983   11985   11986   11987   11986   11988
   11989   11990   11989   11991   11992   11993   11992   11994
   11995   11996   11995   11997   11998   11999   11998   12000
   12001   12002   12001   12003   12004   12005   12004   12006
   12007   12008   12007   12009   12010   12011   12010   12012
   12013   12014   12013   12015   12016   12017   12016   12018
   12019   12020   12019   12021   12022   12023   12022   12024
   12025   12026   12025   12027   12028   12029   12028   12030
   12031   12032   12031   12033   12034   12035   12034   12036
   12037   12038   12037   12039   12040   12041   12040   12042
   12043   12044   12043   12045   12046   12047   12046   12048
   12049   12050   12049   12051   12052   12053   12052   12054
   12055   12056   12055   12057   12058   12059   12058   12060
   12061   12062   12061   12063   12064   12065   12064   12066
   12067   12068   12067   12069   12070   12071   12070   12072
   12073   12074   12073   12075   12076   12077   12076   12078
   12079   12080   12079   12081   12082   12083   12082   12084
   12085   12086   12085   12087   12088   12089   12088   12090
   12091   12092   12091   12093   12094   12095   12094   12096
   12097   12098   12097   12099   12100   12101   12100   12102
   12103   12104   12103   12105   12106   12107   12106   12108
   12109   12110   12109   12111   12112   12113   12112   12114
   12115   12116   12115   12117   12118   12119   12118   12120
   12121   12122   12121   12123   12124   12125   12124   12126
   12127   12128   12127   12129   12130   12131   12130   12132
   12133   12134   12133   12135   12136   12137   12136   12138
   12139   12140   12139   12141   12142   12143   12142   12144
   12145   12146   12145   12147   12148   12149   12148   12150
   12151   12152   12151   12153   12154   12155   12154   12156
   12157   12158   12157   12159   12160   12161   12160   12162
   12163   12164   12163   12165   12166   12167   12166   12168
   12169   12170   12169   12171   12172   12173   12172   12174
   12175   12176   12175   12177   12178   12179   12178   12180
   12181   12182   12181   12183   12184   12185   12184   12186
   12187   12188   12187   12189   12190   12191   12190   12192
   12193   12194   12193   12195   12196   12197   12196   12198
   12199   12200   12199   12201   12202   12203   12202   12204
   12205   12206   12205   12207   12208   12209   12208   12210
   12211   12212   12211   12213   12214   12215   12214   12216
   12217   12218   12217   12219   12220   12221   12220   12222
   12223   12224   12223   12225   12226   12227   12226   12228
   12229   12230   12229   12231   12232   12233   12232   12234
   12235   12236   12235   12237   12238   12239   12238   12240
   12241   12242   12241   12243   12244   12245   12244   12246
   12247   12248   12247   12249   12250   12251   12250   12252
   12253   12254   12253   12255   12256   12257   12256   12258
   12259   12260   12259   12261   12262   12263   12262   12264
   12265   12266   12265   12267   12268   12269   12268   12270
   12271   12272   12271   12273   12274   12275   12274   12276
   12277   12278   12277   12279   12280   12281   12280   12282
   12283   12284   12283   12285   12286   12287   12286   12288
   12289   12290   12289   12291   12292   12293   12292   12294
   12295   12296   12295   12297   12298   12299   12298   12300
   12301   12302   12301   12303   12304   12305   12304   12306
   12307   12308   12307   12309   12310   12311   12310   12312
   12313   12314   12313   12315   12316   12317   12316   12318
   12319   12320   12319   12321   12322   12323   12322   12324
   12325   12326   12325   12327   12328   12329   12328   12330
   12331   12332   12331   12333   12334   12335   12334   12336
   12337   12338   12337   12339   12340   12341   12340   12342
   12343   12344   12343   12345   12346   12347   12346   12348
   12349   12350   12349   12351   12352   12353   12352   12354
   12355   12356   12355   12357   12358   12359   12358   12360
   12361   12362   12361   12363   12364   12365   12364   12366
   12367   12368   12367   12369   12370   12371   12370   12372
   12373   12374   12373   12375   12376   12377   12376   12378
   12379   12380   12379   12381   12382   12383   12382   12384
   12385   12386   12385   12387   12388   12389   12388   12390
   12391   12392   12391   12393   12394   12395   12394   12396
   12397   12398   12397   12399   12400   12401   12400   12402
   12403   12404   12403   12405   12406   12407   12406   12408
   12409   12410   12409   12411   12412   12413   12412   12414
   12415   12416   12415   12417   12418   12419   12418   12420
   12421   12422   12421   12423   12424   12425   12424   12426
   12427   12428   12427   12429   12430   12431   12430   12432
   12433   12434   12433   12435   12436   12437   12436   12438
   12439   12440   12439   12441   12442   12443   12442   12444
   12445   12446   12445   12447   12448   12449   12448   12450
   12451   12452   12451   12453   12454   12455   12454   12456
   12457   12458   12457   12459   12460   12461   12460   12462
   12463   12464   12463   12465   12466   12467   12466   12468
   12469   12470   12469   12471   12472   12473   12472   12474
   12475   12476   12475   12477   12478   12479   12478   12480
   12481   12482   12481   12483   12484   12485   12484   12486
   12487   12488   12487   12489   12490   12491   12490   12492
   12493   12494   12493   12495   12496   12497   12496   12498
   12499   12500   12499   12501   12502   12503   12502   12504
   12505   12506   12505   12507   12508   12509   12508   12510
   12511   12512   12511   12513   12514   12515   12514   12516
   12517   12518   12517   12519   12520   12521   12520   12522
   12523   12524   12523   12525   12526   12527   12526   12528
   12529   12530   12529   12531   12532   12533   12532   12534
   12535   12536   12535   12537   12538   12539   12538   12540
   12541   12542   12541   12543   12544   12545   12544   12546
   12547   12548   12547   12549   12550   12551   12550   12552
   12553   12554   12553   12555   12556   12557   12556   12558
   12559   12560   12559   12561   12562   12563   12562   12564
   12565   12566   12565   12567   12568   12569   12568   12570
   12571   12572   12571   12573   12574   12575   12574   12576
   12577   12578   12577   12579   12580   12581   12580   12582
   12583   12584   12583   12585   12586   12587   12586   12588
   12589   12590   12589   12591   12592   12593   12592   12594
   12595   12596   12595   12597   12598   12599   12598   12600
   12601   12602   12601   12603   12604   12605   12604   12606
   12607   12608   12607   12609   12610   12611   12610   12612
   12613   12614   12613   12615   12616   12617   12616   12618
   12619   12620   12619   12621   12622   12623   12622   12624
   12625   12626   12625   12627   12628   12629   12628   12630
   12631   12632   12631   12633   12634   12635   12634   12636
   12637   12638   12637   12639   12640   12641   12640   12642
   12643   12644   12643   12645   12646   12647   12646   12648
   12649   12650   12649   12651   12652   12653   12652   12654
   12655   12656   12655   12657   12658   12659   12658   12660
   12661   12662   12661   12663   12664   12665   12664   12666
   12667   12668   12667   12669   12670   12671   12670   12672
   12673   12674   12673   12675   12676   12677   12676   12678
   12679   12680   12679   12681   12682   12683   12682   12684
   12685   12686   12685   12687   12688   12689   12688   12690
   12691   12692   12691   12693   12694   12695   12694   12696
   12697   12698   12697   12699   12700   12701   12700   12702
   12703   12704   12703   12705   12706   12707   12706   12708
   12709   12710   12709   12711   12712   12713   12712   12714
   12715   12716   12715   12717   12718   12719   12718   12720
   12721   12722   12721   12723   12724   12725   12724   12726
   12727   12728   12727   12729   12730   12731   12730   12732
   12733   12734   12733   12735   12736   12737   12736   12738
   12739   12740   12739   12741   12742   12743   12742   12744
   12745   12746   12745   12747   12748   12749   12748   12750
   12751   12752   12751   12753   12754   12755   12754   12756
   12757   12758   12757   12759   12760   12761   12760   12762
   12763   12764   12763   12765   12766   12767   12766   12768
   12769   12770   12769   12771   12772   12773   12772   12774
   12775   12776   12775   12777   12778   12779   12778   12780
   12781   12782   12781   12783   12784   12785   12784   12786
   12787   12788   12787   12789   12790   12791   12790   12792
   12793   12794   12793   12795   12796   12797   12796   12798
   12799   12800   12799   12801   12802   12803   12802   12804
   12805   12806   12805   12807   12808   12809   12808   12810
   12811   12812   12811   12813   12814   12815   12814   12816
   12817   12818   12817   12819   12820   12821   12820   12822
   12823   12824   12823   12825   12826   12827   12826   12828
   12829   12830   12829   12831   12832   12833   12832   12834
   12835   12836   12835   12837   12838   12839   12838   12840
   12841   12842   12841   12843   12844   12845   12844   12846
   12847   12848   12847   12849   12850   12851   12850   12852
   12853   12854   12853   12855   12856   12857   12856   12858
   12859   12860   12859   12861   12862   12863   12862   12864
   12865   12866   12865   12867   12868   12869   12868   12870
   12871   12872   12871   12873   12874   12875   12874   12876
   12877   12878   12877   12879   12880   12881   12880   12882
   12883   12884   12883   12885   12886   12887   12886   12888
   12889   12890   12889   12891   12892   12893   12892   12894
   12895   12896   12895   12897   12898   12899   12898   12900
   12901   12902   12901   12903   12904   12905   12904   12906
   12907   12908   12907   12909   12910   12911   12910   12912
   12913   12914   12913   12915   12916   12917   12916   12918
   12919   12920   12919   12921   12922   12923   12922   12924
   12925   12926   12925   12927   12928   12929   12928   12930
   12931   12932   12931   12933   12934   12935   12934   12936
   12937   12938   12937   12939   12940   12941   12940   12942
   12943   12944   12943   12945   12946   12947   12946   12948
   12949   12950   12949   12951   12952   12953   12952   12954
   12955   12956   12955   12957   12958   12959   12958   12960
   12961   12962   12961   12963   12964   12965   12964   12966
   12967   12968   12967   12969   12970   12971   12970   12972
   12973   12974   12973   12975   12976   12977   12976   12978
   12979   12980   12979   12981   12982   12983   12982   12984
   12985   12986   12985   12987   12988   12989   12988   12990
   12991   12992   12991   12993   12994   12995   12994   12996
   12997   12998   12997   12999   13000   13001   13000   13002
   13003   13004   13003   13005   13006   13007   13006   13008
   13009   13010   13009   13011   13012   13013   13012   13014
   13015   13016   13015   13017   13018   13019   13018   13020
   13021   13022   13021   13023   13024   13025   13024   13026
   13027   13028   13027   13029   13030   13031   13030   13032
   13033   13034   13033   13035   13036   13037   13036   13038
   13039   13040   13039   13041   13042   13043   13042   13044
   13045   13046   13045   13047   13048   13049   13048   13050
   13051   13052   13051   13053   13054   13055   13054   13056
   13057   13058   13057   13059   13060   13061   13060   13062
   13063   13064   13063   13065   13066   13067   13066   13068
   13069   13070   13069   13071   13072   13073   13072   13074
   13075   13076   13075   13077   13078   13079   13078   13080
   13081   13082   13081   13083   13084   13085   13084   13086
   13087   13088   13087   13089   13090   13091   13090   13092
   13093   13094   13093   13095   13096   13097   13096   13098
   13099   13100   13099   13101   13102   13103   13102   13104
   13105   13106   13105   13107   13108   13109   13108   13110
   13111   13112   13111   13113   13114   13115   13114   13116
   13117   13118   13117   13119   13120   13121   13120   13122
   13123   13124   13123   13125   13126   13127   13126   13128
   13129   13130   13129   13131   13132   13133   13132   13137
   13132   13141   13132   13145   13133   13134   13133   13135
   13133   13136   13137   13138   13137   13139   13137   13140
   13141   13142   13141   13143   13141   13144   13145   13146
   13145   13147   13145   13148   13148   13149   13148   13150
   13148   13155   13151   13154   13151   13152   13151   13153
   13151   13155   13154   13156   13156   13157   13156   13158
   13156   13159   13159   13160   13159   13167   13159   13161
   13161   13162   13162   13164   13162   13163   13164   13165
   13164   13166   13164   13176   13167   13168   13167   13169
   13167   13170   13170   13171   13171   13173   13171   13172
   13173   13174   13173   13175   13173   13213   13176   13177
   13176   13178   13176   13179   13179   13180   13179   13181
   13179   13182   13182   13183   13182   13184   13182   13185
   13185   13186   13185   13187   13185   13188   13188   13189
   13188   13190   13188   13191   13191   13192   13191   13193
   13191   13194   13194   13195   13194   13196   13194   13197
   13197   13198   13197   13199   13197   13200   13200   13201
   13200   13202   13200   13203   13203   13204   13203   13205
   13203   13206   13206   13207   13206   13208   13206   13209
   13209   13210   13209   13211   13209   13212   13213   13214
   13213   13215   13213   13216   13216   13217   13216   13218
   13216   13219   13219   13220   13219   13221   13219   13222
   13222   13223   13222   13224   13222   13225   13225   13226
   13225   13227   13225   13228   13228   13229   13228   13230
   13228   13231   13231   13232   13231   13233   13231   13234
   13234   13235   13234   13236   13234   13237   13237   13238
   13237   13239   13237   13240   13240   13241   13240   13242
   13240   13243   13243   13244   13243   13245   13243   13246
   13246   13247   13246   13248   13246   13249   13250   13251
   13250   13255   13250   13259   13250   13263   13251   13252
   13251   13253   13251   13254   13255   13256   13255   13257
   13255   13258   13259   13260   13259   13261   13259   13262
   13263   13264   13263   13265   13263   13266   13266   13267
   13266   13268   13266   13273   13269   13272   13269   13270
   13269   13271   13269   13273   13272   13274   13274   13275
   13274   13276   13274   13277   13277   13278   13277   13285
   13277   13279   13279   13280   13280   13282   13280   13281
   13282   13283   13282   13284   13282   13294   13285   13286
   13285   13287   13285   13288   13288   13289   13289   13291
   13289   13290   13291   13292   13291   13293   13291   13331
   13294   13295   13294   13296   13294   13297   13297   13298
   13297   13299   13297   13300   13300   13301   13300   13302
   13300   13303   13303   13304   13303   13305   13303   13306
   13306   13307   13306   13308   13306   13309   13309   13310
   13309   13311   13309   13312   13312   13313   13312   13314
   13312   13315   13315   13316   13315   13317   13315   13318
   13318   13319   13318   13320   13318   13321   13321   13322
   13321   13323   13321   13324   13324   13325   13324   13326
   13324   13327   13327   13328   13327   13329   13327   13330
   13331   13332   13331   13333   13331   13334   13334   13335
   13334   13336   13334   13337   13337   13338   13337   13339
   13337   13340   13340   13341   13340   13342   13340   13343
   13343   13344   13343   13345   13343   13346   13346   13347
   13346   13348   13346   13349   13349   13350   13349   13351
   13349   13352   13352   13353   13352   13354   13352   13355
   13355   13356   13355   13357   13355   13358   13358   13359
   13358   13360   13358   13361   13361   13362   13361   13363
   13361   13364   13364   13365   13364   13366   13364   13367
   13368   13369   13368   13373   13368   13377   13368   13381
   13369   13370   13369   13371   13369   13372   13373   13374
   13373   13375   13373   13376   13377   13378   13377   13379
   13377   13380   13381   13382   13381   13383   13381   13384
   13384   13385   13384   13386   13384   13391   13387   13390
   13387   13388   13387   13389   13387   13391   13390   13392
   13392   13393   13392   13394   13392   13395   13395   13396
   13395   13403   13395   13397   13397   13398   13398   13400
   13398   13399   13400   13401   13400   13402   13400   13412
   13403   13404   13403   13405   13403   13406   13406   13407
   13407   13409   13407   13408   13409   13410   13409   13411
   13409   13449   13412   13413   13412   13414   13412   13415
   13415   13416   13415   13417   13415   13418   13418   13419
   13418   13420   13418   13421   13421   13422   13421   13423
   13421   13424   13424   13425   13424   13426   13424   13427
   13427   13428   13427   13429   13427   13430   13430   13431
   13430   13432   13430   13433   13433   13434   13433   13435
   13433   13436   13436   13437   13436   13438   13436   13439
   13439   13440   13439   13441   13439   13442   13442   13443
   13442   13444   13442   13445   13445   13446   13445   13447
   13445   13448   13449   13450   13449   13451   13449   13452
   13452   13453   13452   13454   13452   13455   13455   13456
   13455   13457   13455   13458   13458   13459   13458   13460
   13458   13461   13461   13462   13461   13463   13461   13464
   13464   13465   13464   13466   13464   13467   13467   13468
   13467   13469   13467   13470   13470   13471   13470   13472
   13470   13473   13473   13474   13473   13475   13473   13476
   13476   13477   13476   13478   13476   13479   13479   13480
   13479   13481   13479   13482   13482   13483   13482   13484
   13482   13485   13486   13487   13486   13491   13486   13495
   13486   13499   13487   13488   13487   13489   13487   13490
   13491   13492   13491   13493   13491   13494   13495   13496
   13495   13497   13495   13498   13499   13500   13499   13501
   13499   13502   13502   13503   13502   13504   13502   13509
   13505   13508   13505   13506   13505   13507   13505   13509
   13508   13510   13510   13511   13510   13512   13510   13513
   13513   13514   13513   13521   13513   13515   13515   13516
   13516   13518   13516   13517   13518   13519   13518   13520
   13518   13530   13521   13522   13521   13523   13521   13524
   13524   13525   13525   13527   13525   13526   13527   13528
   13527   13529   13527   13567   13530   13531   13530   13532
   13530   13533   13533   13534   13533   13535   13533   13536
   13536   13537   13536   13538   13536   13539   13539   13540
   13539   13541   13539   13542   13542   13543   13542   13544
   13542   13545   13545   13546   13545   13547   13545   13548
   13548   13549   13548   13550   13548   13551   13551   13552
   13551   13553   13551   13554   13554   13555   13554   13556
   13554   13557   13557   13558   13557   13559   13557   13560
   13560   13561   13560   13562   13560   13563   13563   13564
   13563   13565   13563   13566   13567   13568   13567   13569
   13567   13570   13570   13571   13570   13572   13570   13573
   13573   13574   13573   13575   13573   13576   13576   13577
   13576   13578   13576   13579   13579   13580   13579   13581
   13579   13582   13582   13583   13582   13584   13582   13585
   13585   13586   13585   13587   13585   13588   13588   13589
   13588   13590   13588   13591   13591   13592   13591   13593
   13591   13594   13594   13595   13594   13596   13594   13597
   13597   13598   13597   13599   13597   13600   13600   13601
   13600   13602   13600   13603   13604   13605   13604   13609
   13604   13613   13604   13617   13605   13606   13605   13607
   13605   13608   13609   13610   13609   13611   13609   13612
   13613   13614   13613   13615   13613   13616   13617   13618
   13617   13619   13617   13620   13620   13621   13620   13622
   13620   13627   13623   13626   13623   13624   13623   13625
   13623   13627   13626   13628   13628   13629   13628   13630
   13628   13631   13631   13632   13631   13639   13631   13633
   13633   13634   13634   13636   13634   13635   13636   13637
   13636   13638   13636   13648   13639   13640   13639   13641
   13639   13642   13642   13643   13643   13645   13643   13644
   13645   13646   13645   13647   13645   13685   13648   13649
   13648   13650   13648   13651   13651   13652   13651   13653
   13651   13654   13654   13655   13654   13656   13654   13657
   13657   13658   13657   13659   13657   13660   13660   13661
   13660   13662   13660   13663   13663   13664   13663   13665
   13663   13666   13666   13667   13666   13668   13666   13669
   13669   13670   13669   13671   13669   13672   13672   13673
   13672   13674   13672   13675   13675   13676   13675   13677
   13675   13678   13678   13679   13678   13680   13678   13681
   13681   13682   13681   13683   13681   13684   13685   13686
   13685   13687   13685   13688   13688   13689   13688   13690
   13688   13691   13691   13692   13691   13693   13691   13694
   13694   13695   13694   13696   13694   13697   13697   13698
   13697   13699   13697   13700   13700   13701   13700   13702
   13700   13703   13703   13704   13703   13705   13703   13706
   13706   13707   13706   13708   13706   13709   13709   13710
   13709   13711   13709   13712   13712   13713   13712   13714
   13712   13715   13715   13716   13715   13717   13715   13718
   13718   13719   13718   13720   13718   13721   13722   13723
   13722   13727   13722   13731   13722   13735   13723   13724
   13723   13725   13723   13726   13727   13728   13727   13729
   13727   13730   13731   13732   13731   13733   13731   13734
   13735   13736   13735   13737   13735   13738   13738   13739
   13738   13740   13738   13745   13741   13744   13741   13742
   13741   13743   13741   13745   13744   13746   13746   13747
   13746   13748   13746   13749   13749   13750   13749   13757
   13749   13751   13751   13752   13752   13754   13752   13753
   13754   13755   13754   13756   13754   13766   13757   13758
   13757   13759   13757   13760   13760   13761   13761   13763
   13761   13762   13763   13764   13763   13765   13763   13803
   13766   13767   13766   13768   13766   13769   13769   13770
   13769   13771   13769   13772   13772   13773   13772   13774
   13772   13775   13775   13776   13775   13777   13775   13778
   13778   13779   13778   13780   13778   13781   13781   13782
   13781   13783   13781   13784   13784   13785   13784   13786
   13784   13787   13787   13788   13787   13789   13787   13790
   13790   13791   13790   13792   13790   13793   13793   13794
   13793   13795   13793   13796   13796   13797   13796   13798
   13796   13799   13799   13800   13799   13801   13799   13802
   13803   13804   13803   13805   13803   13806   13806   13807
   13806   13808   13806   13809   13809   13810   13809   13811
   13809   13812   13812   13813   13812   13814   13812   13815
   13815   13816   13815   13817   13815   13818   13818   13819
   13818   13820   13818   13821   13821   13822   13821   13823
   13821   13824   13824   13825   13824   13826   13824   13827
   13827   13828   13827   13829   13827   13830   13830   13831
   13830   13832   13830   13833   13833   13834   13833   13835
   13833   13836   13836   13837   13836   13838   13836   13839
   13840   13841   13840   13845   13840   13849   13840   13853
   13841   13842   13841   13843   13841   13844   13845   13846
   13845   13847   13845   13848   13849   13850   13849   13851
   13849   13852   13853   13854   13853   13855   13853   13856
   13856   13857   13856   13858   13856   13863   13859   13862
   13859   13860   13859   13861   13859   13863   13862   13864
   13864   13865   13864   13866   13864   13867   13867   13868
   13867   13875   13867   13869   13869   13870   13870   13872
   13870   13871   13872   13873   13872   13874   13872   13884
   13875   13876   13875   13877   13875   13878   13878   13879
   13879   13881   13879   13880   13881   13882   13881   13883
   13881   13921   13884   13885   13884   13886   13884   13887
   13887   13888   13887   13889   13887   13890   13890   13891
   13890   13892   13890   13893   13893   13894   13893   13895
   13893   13896   13896   13897   13896   13898   13896   13899
   13899   13900   13899   13901   13899   13902   13902   13903
   13902   13904   13902   13905   13905   13906   13905   13907
   13905   13908   13908   13909   13908   13910   13908   13911
   13911   13912   13911   13913   13911   13914   13914   13915
   13914   13916   13914   13917   13917   13918   13917   13919
   13917   13920   13921   13922   13921   13923   13921   13924
   13924   13925   13924   13926   13924   13927   13927   13928
   13927   13929   13927   13930   13930   13931   13930   13932
   13930   13933   13933   13934   13933   13935   13933   13936
   13936   13937   13936   13938   13936   13939   13939   13940
   13939   13941   13939   13942   13942   13943   13942   13944
   13942   13945   13945   13946   13945   13947   13945   13948
   13948   13949   13948   13950   13948   13951   13951   13952
   13951   13953   13951   13954   13954   13955   13954   13956
   13954   13957   13958   13959   13958   13963   13958   13967
   13958   13971   13959   13960   13959   13961   13959   13962
   13963   13964   13963   13965   13963   13966   13967   13968
   13967   13969   13967   13970   13971   13972   13971   13973
   13971   13974   13974   13975   13974   13976   13974   13981
   13977   13980   13977   13978   13977   13979   13977   13981
   13980   13982   13982   13983   13982   13984   13982   13985
   13985   13986   13985   13993   13985   13987   13987   13988
   13988   13990   13988   13989   13990   13991   13990   13992
   13990   14002   13993   13994   13993   13995   13993   13996
   13996   13997   13997   13999   13997   13998   13999   14000
   13999   14001   13999   14039   14002   14003   14002   14004
   14002   14005   14005   14006   14005   14007   14005   14008
   14008   14009   14008   14010   14008   14011   14011   14012
   14011   14013   14011   14014   14014   14015   14014   14016
   14014   14017   14017   14018   14017   14019   14017   14020
   14020   14021   14020   14022   14020   14023   14023   14024
   14023   14025   14023   14026   14026   14027   14026   14028
   14026   14029   14029   14030   14029   14031   14029   14032
   14032   14033   14032   14034   14032   14035   14035   14036
   14035   14037   14035   14038   14039   14040   14039   14041
   14039   14042   14042   14043   14042   14044   14042   14045
   14045   14046   14045   14047   14045   14048   14048   14049
   14048   14050   14048   14051   14051   14052   14051   14053
   14051   14054   14054   14055   14054   14056   14054   14057
   14057   14058   14057   14059   14057   14060   14060   14061
   14060   14062   14060   14063   14063   14064   14063   14065
   14063   14066   14066   14067   14066   14068   14066   14069
   14069   14070   14069   14071   14069   14072   14072   14073
   14072   14074   14072   14075   14076   14077   14076   14081
   14076   14085   14076   14089   14077   14078   14077   14079
   14077   14080   14081   14082   14081   14083   14081   14084
   14085   14086   14085   14087   14085   14088   14089   14090
   14089   14091   14089   14092   14092   14093   14092   14094
   14092   14099   14095   14098   14095   14096   14095   14097
   14095   14099   14098   14100   14100   14101   14100   14102
   14100   14103   14103   14104   14103   14111   14103   14105
   14105   14106   14106   14108   14106   14107   14108   14109
   14108   14110   14108   14120   14111   14112   14111   14113
   14111   14114   14114   14115   14115   14117   14115   14116
   14117   14118   14117   14119   14117   14157   14120   14121
   14120   14122   14120   14123   14123   14124   14123   14125
   14123   14126   14126   14127   14126   14128   14126   14129
   14129   14130   14129   14131   14129   14132   14132   14133
   14132   14134   14132   14135   14135   14136   14135   14137
   14135   14138   14138   14139   14138   14140   14138   14141
   14141   14142   14141   14143   14141   14144   14144   14145
   14144   14146   14144   14147   14147   14148   14147   14149
   14147   14150   14150   14151   14150   14152   14150   14153
   14153   14154   14153   14155   14153   14156   14157   14158
   14157   14159   14157   14160   14160   14161   14160   14162
   14160   14163   14163   14164   14163   14165   14163   14166
   14166   14167   14166   14168   14166   14169   14169   14170
   14169   14171   14169   14172   14172   14173   14172   14174
   14172   14175   14175   14176   14175   14177   14175   14178
   14178   14179   14178   14180   14178   14181   14181   14182
   14181   14183   14181   14184   14184   14185   14184   14186
   14184   14187   14187   14188   14187   14189   14187   14190
   14190   14191   14190   14192   14190   14193   14194   14195
   14194   14199   14194   14203   14194   14207   14195   14196
   14195   14197   14195   14198   14199   14200   14199   14201
   14199   14202   14203   14204   14203   14205   14203   14206
   14207   14208   14207   14209   14207   14210   14210   14211
   14210   14212   14210   14217   14213   14216   14213   14214
   14213   14215   14213   14217   14216   14218   14218   14219
   14218   14220   14218   14221   14221   14222   14221   14229
   14221   14223   14223   14224   14224   14226   14224   14225
   14226   14227   14226   14228   14226   14238   14229   14230
   14229   14231   14229   14232   14232   14233   14233   14235
   14233   14234   14235   14236   14235   14237   14235   14275
   14238   14239   14238   14240   14238   14241   14241   14242
   14241   14243   14241   14244   14244   14245   14244   14246
   14244   14247   14247   14248   14247   14249   14247   14250
   14250   14251   14250   14252   14250   14253   14253   14254
   14253   14255   14253   14256   14256   14257   14256   14258
   14256   14259   14259   14260   14259   14261   14259   14262
   14262   14263   14262   14264   14262   14265   14265   14266
   14265   14267   14265   14268   14268   14269   14268   14270
   14268   14271   14271   14272   14271   14273   14271   14274
   14275   14276   14275   14277   14275   14278   14278   14279
   14278   14280   14278   14281   14281   14282   14281   14283
   14281   14284   14284   14285   14284   14286   14284   14287
   14287   14288   14287   14289   14287   14290   14290   14291
   14290   14292   14290   14293   14293   14294   14293   14295
   14293   14296   14296   14297   14296   14298   14296   14299
   14299   14300   14299   14301   14299   14302   14302   14303
   14302   14304   14302   14305   14305   14306   14305   14307
   14305   14308   14308   14309   14308   14310   14308   14311
   14312   14313   14312   14317   14312   14321   14312   14325
   14313   14314   14313   14315   14313   14316   14317   14318
   14317   14319   14317   14320   14321   14322   14321   14323
   14321   14324   14325   14326   14325   14327   14325   14328
   14328   14329   14328   14330   14328   14335   14331   14334
   14331   14332   14331   14333   14331   14335   14334   14336
   14336   14337   14336   14338   14336   14339   14339   14340
   14339   14347   14339   14341   14341   14342   14342   14344
   14342   14343   14344   14345   14344   14346   14344   14356
   14347   14348   14347   14349   14347   14350   14350   14351
   14351   14353   14351   14352   14353   14354   14353   14355
   14353   14393   14356   14357   14356   14358   14356   14359
   14359   14360   14359   14361   14359   14362   14362   14363
   14362   14364   14362   14365   14365   14366   14365   14367
   14365   14368   14368   14369   14368   14370   14368   14371
   14371   14372   14371   14373   14371   14374   14374   14375
   14374   14376   14374   14377   14377   14378   14377   14379
   14377   14380   14380   14381   14380   14382   14380   14383
   14383   14384   14383   14385   14383   14386   14386   14387
   14386   14388   14386   14389   14389   14390   14389   14391
   14389   14392   14393   14394   14393   14395   14393   14396
   14396   14397   14396   14398   14396   14399   14399   14400
   14399   14401   14399   14402   14402   14403   14402   14404
   14402   14405   14405   14406   14405   14407   14405   14408
   14408   14409   14408   14410   14408   14411   14411   14412
   14411   14413   14411   14414   14414   14415   14414   14416
   14414   14417   14417   14418   14417   14419   14417   14420
   14420   14421   14420   14422   14420   14423   14423   14424
   14423   14425   14423   14426   14426   14427   14426   14428
   14426   14429   14430   14431   14430   14435   14430   14439
   14430   14443   14431   14432   14431   14433   14431   14434
   14435   14436   14435   14437   14435   14438   14439   14440
   14439   14441   14439   14442   14443   14444   14443   14445
   14443   14446   14446   14447   14446   14448   14446   14453
   14449   14452   14449   14450   14449   14451   14449   14453
   14452   14454   14454   14455   14454   14456   14454   14457
   14457   14458   14457   14465   14457   14459   14459   14460
   14460   14462   14460   14461   14462   14463   14462   14464
   14462   14474   14465   14466   14465   14467   14465   14468
   14468   14469   14469   14471   14469   14470   14471   14472
   14471   14473   14471   14511   14474   14475   14474   14476
   14474   14477   14477   14478   14477   14479   14477   14480
   14480   14481   14480   14482   14480   14483   14483   14484
   14483   14485   14483   14486   14486   14487   14486   14488
   14486   14489   14489   14490   14489   14491   14489   14492
   14492   14493   14492   14494   14492   14495   14495   14496
   14495   14497   14495   14498   14498   14499   14498   14500
   14498   14501   14501   14502   14501   14503   14501   14504
   14504   14505   14504   14506   14504   14507   14507   14508
   14507   14509   14507   14510   14511   14512   14511   14513
   14511   14514   14514   14515   14514   14516   14514   14517
   14517   14518   14517   14519   14517   14520   14520   14521
   14520   14522   14520   14523   14523   14524   14523   14525
   14523   14526   14526   14527   14526   14528   14526   14529
   14529   14530   14529   14531   14529   14532   14532   14533
   14532   14534   14532   14535   14535   14536   14535   14537
   14535   14538   14538   14539   14538   14540   14538   14541
   14541   14542   14541   14543   14541   14544   14544   14545
   14544   14546   14544   14547   14548   14549   14548   14553
   14548   14557   14548   14561   14549   14550   14549   14551
   14549   14552   14553   14554   14553   14555   14553   14556
   14557   14558   14557   14559   14557   14560   14561   14562
   14561   14563   14561   14564   14564   14565   14564   14566
   14564   14571   14567   14570   14567   14568   14567   14569
   14567   14571   14570   14572   14572   14573   14572   14574
   14572   14575   14575   14576   14575   14583   14575   14577
   14577   14578   14578   14580   14578   14579   14580   14581
   14580   14582   14580   14592   14583   14584   14583   14585
   14583   14586   14586   14587   14587   14589   14587   14588
   14589   14590   14589   14591   14589   14629   14592   14593
   14592   14594   14592   14595   14595   14596   14595   14597
   14595   14598   14598   14599   14598   14600   14598   14601
   14601   14602   14601   14603   14601   14604   14604   14605
   14604   14606   14604   14607   14607   14608   14607   14609
   14607   14610   14610   14611   14610   14612   14610   14613
   14613   14614   14613   14615   14613   14616   14616   14617
   14616   14618   14616   14619   14619   14620   14619   14621
   14619   14622   14622   14623   14622   14624   14622   14625
   14625   14626   14625   14627   14625   14628   14629   14630
   14629   14631   14629   14632   14632   14633   14632   14634
   14632   14635   14635   14636   14635   14637   14635   14638
   14638   14639   14638   14640   14638   14641   14641   14642
   14641   14643   14641   14644   14644   14645   14644   14646
   14644   14647   14647   14648   14647   14649   14647   14650
   14650   14651   14650   14652   14650   14653   14653   14654
   14653   14655   14653   14656   14656   14657   14656   14658
   14656   14659   14659   14660   14659   14661   14659   14662
   14662   14663   14662   14664   14662   14665   14666   14667
   14666   14671   14666   14675   14666   14679   14667   14668
   14667   14669   14667   14670   14671   14672   14671   14673
   14671   14674   14675   14676   14675   14677   14675   14678
   14679   14680   14679   14681   14679   14682   14682   14683
   14682   14684   14682   14689   14685   14688   14685   14686
   14685   14687   14685   14689   14688   14690   14690   14691
   14690   14692   14690   14693   14693   14694   14693   14701
   14693   14695   14695   14696   14696   14698   14696   14697
   14698   14699   14698   14700   14698   14710   14701   14702
   14701   14703   14701   14704   14704   14705   14705   14707
   14705   14706   14707   14708   14707   14709   14707   14747
   14710   14711   14710   14712   14710   14713   14713   14714
   14713   14715   14713   14716   14716   14717   14716   14718
   14716   14719   14719   14720   14719   14721   14719   14722
   14722   14723   14722   14724   14722   14725   14725   14726
   14725   14727   14725   14728   14728   14729   14728   14730
   14728   14731   14731   14732   14731   14733   14731   14734
   14734   14735   14734   14736   14734   14737   14737   14738
   14737   14739   14737   14740   14740   14741   14740   14742
   14740   14743   14743   14744   14743   14745   14743   14746
   14747   14748   14747   14749   14747   14750   14750   14751
   14750   14752   14750   14753   14753   14754   14753   14755
   14753   14756   14756   14757   14756   14758   14756   14759
   14759   14760   14759   14761   14759   14762   14762   14763
   14762   14764   14762   14765   14765   14766   14765   14767
   14765   14768   14768   14769   14768   14770   14768   14771
   14771   14772   14771   14773   14771   14774   14774   14775
   14774   14776   14774   14777   14777   14778   14777   14779
   14777   14780   14780   14781   14780   14782   14780   14783
   14784   14785   14784   14789   14784   14793   14784   14797
   14785   14786   14785   14787   14785   14788   14789   14790
   14789   14791   14789   14792   14793   14794   14793   14795
   14793   14796   14797   14798   14797   14799   14797   14800
   14800   14801   14800   14802   14800   14807   14803   14806
   14803   14804   14803   14805   14803   14807   14806   14808
   14808   14809   14808   14810   14808   14811   14811   14812
   14811   14819   14811   14813   14813   14814   14814   14816
   14814   14815   14816   14817   14816   14818   14816   14828
   14819   14820   14819   14821   14819   14822   14822   14823
   14823   14825   14823   14824   14825   14826   14825   14827
   14825   14865   14828   14829   14828   14830   14828   14831
   14831   14832   14831   14833   14831   14834   14834   14835
   14834   14836   14834   14837   14837   14838   14837   14839
   14837   14840   14840   14841   14840   14842   14840   14843
   14843   14844   14843   14845   14843   14846   14846   14847
   14846   14848   14846   14849   14849   14850   14849   14851
   14849   14852   14852   14853   14852   14854   14852   14855
   14855   14856   14855   14857   14855   14858   14858   14859
   14858   14860   14858   14861   14861   14862   14861   14863
   14861   14864   14865   14866   14865   14867   14865   14868
   14868   14869   14868   14870   14868   14871   14871   14872
   14871   14873   14871   14874   14874   14875   14874   14876
   14874   14877   14877   14878   14877   14879   14877   14880
   14880   14881   14880   14882   14880   14883   14883   14884
   14883   14885   14883   14886   14886   14887   14886   14888
   14886   14889   14889   14890   14889   14891   14889   14892
   14892   14893   14892   14894   14892   14895   14895   14896
   14895   14897   14895   14898   14898   14899   14898   14900
   14898   14901   14902   14903   14902   14907   14902   14911
   14902   14915   14903   14904   14903   14905   14903   14906
   14907   14908   14907   14909   14907   14910   14911   14912
   14911   14913   14911   14914   14915   14916   14915   14917
   14915   14918   14918   14919   14918   14920   14918   14925
   14921   14924   14921   14922   14921   14923   14921   14925
   14924   14926   14926   14927   14926   14928   14926   14929
   14929   14930   14929   14937   14929   14931   14931   14932
   14932   14934   14932   14933   14934   14935   14934   14936
   14934   14946   14937   14938   14937   14939   14937   14940
   14940   14941   14941   14943   14941   14942   14943   14944
   14943   14945   14943   14983   14946   14947   14946   14948
   14946   14949   14949   14950   14949   14951   14949   14952
   14952   14953   14952   14954   14952   14955   14955   14956
   14955   14957   14955   14958   14958   14959   14958   14960
   14958   14961   14961   14962   14961   14963   14961   14964
   14964   14965   14964   14966   14964   14967   14967   14968
   14967   14969   14967   14970   14970   14971   14970   14972
   14970   14973   14973   14974   14973   14975   14973   14976
   14976   14977   14976   14978   14976   14979   14979   14980
   14979   14981   14979   14982   14983   14984   14983   14985
   14983   14986   14986   14987   14986   14988   14986   14989
   14989   14990   14989   14991   14989   14992   14992   14993
   14992   14994   14992   14995   14995   14996   14995   14997
   14995   14998   14998   14999   14998   15000   14998   15001
   15001   15002   15001   15003   15001   15004   15004   15005
   15004   15006   15004   15007   15007   15008   15007   15009
   15007   15010   15010   15011   15010   15012   15010   15013
   15013   15014   15013   15015   15013   15016   15016   15017
   15016   15018   15016   15019   15020   15021   15020   15025
   15020   15029   15020   15033   15021   15022   15021   15023
   15021   15024   15025   15026   15025   15027   15025   15028
   15029   15030   15029   15031   15029   15032   15033   15034
   15033   15035   15033   15036   15036   15037   15036   15038
   15036   15043   15039   15042   15039   15040   15039   15041
   15039   15043   15042   15044   15044   15045   15044   15046
   15044   15047   15047   15048   15047   15055   15047   15049
   15049   15050   15050   15052   15050   15051   15052   15053
   15052   15054   15052   15064   15055   15056   15055   15057
   15055   15058   15058   15059   15059   15061   15059   15060
   15061   15062   15061   15063   15061   15101   15064   15065
   15064   15066   15064   15067   15067   15068   15067   15069
   15067   15070   15070   15071   15070   15072   15070   15073
   15073   15074   15073   15075   15073   15076   15076   15077
   15076   15078   15076   15079   15079   15080   15079   15081
   15079   15082   15082   15083   15082   15084   15082   15085
   15085   15086   15085   15087   15085   15088   15088   15089
   15088   15090   15088   15091   15091   15092   15091   15093
   15091   15094   15094   15095   15094   15096   15094   15097
   15097   15098   15097   15099   15097   15100   15101   15102
   15101   15103   15101   15104   15104   15105   15104   15106
   15104   15107   15107   15108   15107   15109   15107   15110
   15110   15111   15110   15112   15110   15113   15113   15114
   15113   15115   15113   15116   15116   15117   15116   15118
   15116   15119   15119   15120   15119   15121   15119   15122
   15122   15123   15122   15124   15122   15125   15125   15126
   15125   15127   15125   15128   15128   15129   15128   15130
   15128   15131   15131   15132   15131   15133   15131   15134
   15134   15135   15134   15136   15134   15137   15138   15139
   15138   15143   15138   15147   15138   15151   15139   15140
   15139   15141   15139   15142   15143   15144   15143   15145
   15143   15146   15147   15148   15147   15149   15147   15150
   15151   15152   15151   15153   15151   15154   15154   15155
   15154   15156   15154   15161   15157   15160   15157   15158
   15157   15159   15157   15161   15160   15162   15162   15163
   15162   15164   15162   15165   15165   15166   15165   15173
   15165   15167   15167   15168   15168   15170   15168   15169
   15170   15171   15170   15172   15170   15182   15173   15174
   15173   15175   15173   15176   15176   15177   15177   15179
   15177   15178   15179   15180   15179   15181   15179   15219
   15182   15183   15182   15184   15182   15185   15185   15186
   15185   15187   15185   15188   15188   15189   15188   15190
   15188   15191   15191   15192   15191   15193   15191   15194
   15194   15195   15194   15196   15194   15197   15197   15198
   15197   15199   15197   15200   15200   15201   15200   15202
   15200   15203   15203   15204   15203   15205   15203   15206
   15206   15207   15206   15208   15206   15209   15209   15210
   15209   15211   15209   15212   15212   15213   15212   15214
   15212   15215   15215   15216   15215   15217   15215   15218
   15219   15220   15219   15221   15219   15222   15222   15223
   15222   15224   15222   15225   15225   15226   15225   15227
   15225   15228   15228   15229   15228   15230   15228   15231
   15231   15232   15231   15233   15231   15234   15234   15235
   15234   15236   15234   15237   15237   15238   15237   15239
   15237   15240   15240   15241   15240   15242   15240   15243
   15243   15244   15243   15245   15243   15246   15246   15247
   15246   15248   15246   15249   15249   15250   15249   15251
   15249   15252   15252   15253   15252   15254   15252   15255
   15256   15257   15256   15261   15256   15265   15256   15269
   15257   15258   15257   15259   15257   15260   15261   15262
   15261   15263   15261   15264   15265   15266   15265   15267
   15265   15268   15269   15270   15269   15271   15269   15272
   15272   15273   15272   15274   15272   15279   15275   15278
   15275   15276   15275   15277   15275   15279   15278   15280
   15280   15281   15280   15282   15280   15283   15283   15284
   15283   15291   15283   15285   15285   15286   15286   15288
   15286   15287   15288   15289   15288   15290   15288   15300
   15291   15292   15291   15293   15291   15294   15294   15295
   15295   15297   15295   15296   15297   15298   15297   15299
   15297   15337   15300   15301   15300   15302   15300   15303
   15303   15304   15303   15305   15303   15306   15306   15307
   15306   15308   15306   15309   15309   15310   15309   15311
   15309   15312   15312   15313   15312   15314   15312   15315
   15315   15316   15315   15317   15315   15318   15318   15319
   15318   15320   15318   15321   15321   15322   15321   15323
   15321   15324   15324   15325   15324   15326   15324   15327
   15327   15328   15327   15329   15327   15330   15330   15331
   15330   15332   15330   15333   15333   15334   15333   15335
   15333   15336   15337   15338   15337   15339   15337   15340
   15340   15341   15340   15342   15340   15343   15343   15344
   15343   15345   15343   15346   15346   15347   15346   15348
   15346   15349   15349   15350   15349   15351   15349   15352
   15352   15353   15352   15354   15352   15355   15355   15356
   15355   15357   15355   15358   15358   15359   15358   15360
   15358   15361   15361   15362   15361   15363   15361   15364
   15364   15365   15364   15366   15364   15367   15367   15368
   15367   15369   15367   15370   15370   15371   15370   15372
   15370   15373   15374   15375   15374   15379   15374   15383
   15374   15387   15375   15376   15375   15377   15375   15378
   15379   15380   15379   15381   15379   15382   15383   15384
   15383   15385   15383   15386   15387   15388   15387   15389
   15387   15390   15390   15391   15390   15392   15390   15397
   15393   15396   15393   15394   15393   15395   15393   15397
   15396   15398   15398   15399   15398   15400   15398   15401
   15401   15402   15401   15409   15401   15403   15403   15404
   15404   15406   15404   15405   15406   15407   15406   15408
   15406   15418   15409   15410   15409   15411   15409   15412
   15412   15413   15413   15415   15413   15414   15415   15416
   15415   15417   15415   15455   15418   15419   15418   15420
   15418   15421   15421   15422   15421   15423   15421   15424
   15424   15425   15424   15426   15424   15427   15427   15428
   15427   15429   15427   15430   15430   15431   15430   15432
   15430   15433   15433   15434   15433   15435   15433   15436
   15436   15437   15436   15438   15436   15439   15439   15440
   15439   15441   15439   15442   15442   15443   15442   15444
   15442   15445   15445   15446   15445   15447   15445   15448
   15448   15449   15448   15450   15448   15451   15451   15452
   15451   15453   15451   15454   15455   15456   15455   15457
   15455   15458   15458   15459   15458   15460   15458   15461
   15461   15462   15461   15463   15461   15464   15464   15465
   15464   15466   15464   15467   15467   15468   15467   15469
   15467   15470   15470   15471   15470   15472   15470   15473
   15473   15474   15473   15475   15473   15476   15476   15477
   15476   15478   15476   15479   15479   15480   15479   15481
   15479   15482   15482   15483   15482   15484   15482   15485
   15485   15486   15485   15487   15485   15488   15488   15489
   15488   15490   15488   15491   15492   15493   15492   15497
   15492   15501   15492   15505   15493   15494   15493   15495
   15493   15496   15497   15498   15497   15499   15497   15500
   15501   15502   15501   15503   15501   15504   15505   15506
   15505   15507   15505   15508   15508   15509   15508   15510
   15508   15515   15511   15514   15511   15512   15511   15513
   15511   15515   15514   15516   15516   15517   15516   15518
   15516   15519   15519   15520   15519   15527   15519   15521
   15521   15522   15522   15524   15522   15523   15524   15525
   15524   15526   15524   15536   15527   15528   15527   15529
   15527   15530   15530   15531   15531   15533   15531   15532
   15533   15534   15533   15535   15533   15573   15536   15537
   15536   15538   15536   15539   15539   15540   15539   15541
   15539   15542   15542   15543   15542   15544   15542   15545
   15545   15546   15545   15547   15545   15548   15548   15549
   15548   15550   15548   15551   15551   15552   15551   15553
   15551   15554   15554   15555   15554   15556   15554   15557
   15557   15558   15557   15559   15557   15560   15560   15561
   15560   15562   15560   15563   15563   15564   15563   15565
   15563   15566   15566   15567   15566   15568   15566   15569
   15569   15570   15569   15571   15569   15572   15573   15574
   15573   15575   15573   15576   15576   15577   15576   15578
   15576   15579   15579   15580   15579   15581   15579   15582
   15582   15583   15582   15584   15582   15585   15585   15586
   15585   15587   15585   15588   15588   15589   15588   15590
   15588   15591   15591   15592   15591   15593   15591   15594
   15594   15595   15594   15596   15594   15597   15597   15598
   15597   15599   15597   15600   15600   15601   15600   15602
   15600   15603   15603   15604   15603   15605   15603   15606
   15606   15607   15606   15608   15606   15609   15610   15611
   15610   15615   15610   15619   15610   15623   15611   15612
   15611   15613   15611   15614   15615   15616   15615   15617
   15615   15618   15619   15620   15619   15621   15619   15622
   15623   15624   15623   15625   15623   15626   15626   15627
   15626   15628   15626   15633   15629   15632   15629   15630
   15629   15631   15629   15633   15632   15634   15634   15635
   15634   15636   15634   15637   15637   15638   15637   15645
   15637   15639   15639   15640   15640   15642   15640   15641
   15642   15643   15642   15644   15642   15654   15645   15646
   15645   15647   15645   15648   15648   15649   15649   15651
   15649   15650   15651   15652   15651   15653   15651   15691
   15654   15655   15654   15656   15654   15657   15657   15658
   15657   15659   15657   15660   15660   15661   15660   15662
   15660   15663   15663   15664   15663   15665   15663   15666
   15666   15667   15666   15668   15666   15669   15669   15670
   15669   15671   15669   15672   15672   15673   15672   15674
   15672   15675   15675   15676   15675   15677   15675   15678
   15678   15679   15678   15680   15678   15681   15681   15682
   15681   15683   15681   15684   15684   15685   15684   15686
   15684   15687   15687   15688   15687   15689   15687   15690
   15691   15692   15691   15693   15691   15694   15694   15695
   15694   15696   15694   15697   15697   15698   15697   15699
   15697   15700   15700   15701   15700   15702   15700   15703
   15703   15704   15703   15705   15703   15706   15706   15707
   15706   15708   15706   15709   15709   15710   15709   15711
   15709   15712   15712   15713   15712   15714   15712   15715
   15715   15716   15715   15717   15715   15718   15718   15719
   15718   15720   15718   15721   15721   15722   15721   15723
   15721   15724   15724   15725   15724   15726   15724   15727
   15728   15729   15728   15733   15728   15737   15728   15741
   15729   15730   15729   15731   15729   15732   15733   15734
   15733   15735   15733   15736   15737   15738   15737   15739
   15737   15740   15741   15742   15741   15743   15741   15744
   15744   15745   15744   15746   15744   15751   15747   15750
   15747   15748   15747   15749   15747   15751   15750   15752
   15752   15753   15752   15754   15752   15755   15755   15756
   15755   15763   15755   15757   15757   15758   15758   15760
   15758   15759   15760   15761   15760   15762   15760   15772
   15763   15764   15763   15765   15763   15766   15766   15767
   15767   15769   15767   15768   15769   15770   15769   15771
   15769   15809   15772   15773   15772   15774   15772   15775
   15775   15776   15775   15777   15775   15778   15778   15779
   15778   15780   15778   15781   15781   15782   15781   15783
   15781   15784   15784   15785   15784   15786   15784   15787
   15787   15788   15787   15789   15787   15790   15790   15791
   15790   15792   15790   15793   15793   15794   15793   15795
   15793   15796   15796   15797   15796   15798   15796   15799
   15799   15800   15799   15801   15799   15802   15802   15803
   15802   15804   15802   15805   15805   15806   15805   15807
   15805   15808   15809   15810   15809   15811   15809   15812
   15812   15813   15812   15814   15812   15815   15815   15816
   15815   15817   15815   15818   15818   15819   15818   15820
   15818   15821   15821   15822   15821   15823   15821   15824
   15824   15825   15824   15826   15824   15827   15827   15828
   15827   15829   15827   15830   15830   15831   15830   15832
   15830   15833   15833   15834   15833   15835   15833   15836
   15836   15837   15836   15838   15836   15839   15839   15840
   15839   15841   15839   15842   15842   15843   15842   15844
   15842   15845   15846   15847   15846   15851   15846   15855
   15846   15859   15847   15848   15847   15849   15847   15850
   15851   15852   15851   15853   15851   15854   15855   15856
   15855   15857   15855   15858   15859   15860   15859   15861
   15859   15862   15862   15863   15862   15864   15862   15869
   15865   15868   15865   15866   15865   15867   15865   15869
   15868   15870   15870   15871   15870   15872   15870   15873
   15873   15874   15873   15881   15873   15875   15875   15876
   15876   15878   15876   15877   15878   15879   15878   15880
   15878   15890   15881   15882   15881   15883   15881   15884
   15884   15885   15885   15887   15885   15886   15887   15888
   15887   15889   15887   15927   15890   15891   15890   15892
   15890   15893   15893   15894   15893   15895   15893   15896
   15896   15897   15896   15898   15896   15899   15899   15900
   15899   15901   15899   15902   15902   15903   15902   15904
   15902   15905   15905   15906   15905   15907   15905   15908
   15908   15909   15908   15910   15908   15911   15911   15912
   15911   15913   15911   15914   15914   15915   15914   15916
   15914   15917   15917   15918   15917   15919   15917   15920
   15920   15921   15920   15922   15920   15923   15923   15924
   15923   15925   15923   15926   15927   15928   15927   15929
   15927   15930   15930   15931   15930   15932   15930   15933
   15933   15934   15933   15935   15933   15936   15936   15937
   15936   15938   15936   15939   15939   15940   15939   15941
   15939   15942   15942   15943   15942   15944   15942   15945
   15945   15946   15945   15947   15945   15948   15948   15949
   15948   15950   15948   15951   15951   15952   15951   15953
   15951   15954   15954   15955   15954   15956   15954   15957
   15957   15958   15957   15959   15957   15960   15960   15961
   15960   15962   15960   15963   15964   15965   15964   15969
   15964   15973   15964   15977   15965   15966   15965   15967
   15965   15968   15969   15970   15969   15971   15969   15972
   15973   15974   15973   15975   15973   15976   15977   15978
   15977   15979   15977   15980   15980   15981   15980   15982
   15980   15987   15983   15986   15983   15984   15983   15985
   15983   15987   15986   15988   15988   15989   15988   15990
   15988   15991   15991   15992   15991   15999   15991   15993
   15993   15994   15994   15996   15994   15995   15996   15997
   15996   15998   15996   16008   15999   16000   15999   16001
   15999   16002   16002   16003   16003   16005   16003   16004
   16005   16006   16005   16007   16005   16045   16008   16009
   16008   16010   16008   16011   16011   16012   16011   16013
   16011   16014   16014   16015   16014   16016   16014   16017
   16017   16018   16017   16019   16017   16020   16020   16021
   16020   16022   16020   16023   16023   16024   16023   16025
   16023   16026   16026   16027   16026   16028   16026   16029
   16029   16030   16029   16031   16029   16032   16032   16033
   16032   16034   16032   16035   16035   16036   16035   16037
   16035   16038   16038   16039   16038   16040   16038   16041
   16041   16042   16041   16043   16041   16044   16045   16046
   16045   16047   16045   16048   16048   16049   16048   16050
   16048   16051   16051   16052   16051   16053   16051   16054
   16054   16055   16054   16056   16054   16057   16057   16058
   16057   16059   16057   16060   16060   16061   16060   16062
   16060   16063   16063   16064   16063   16065   16063   16066
   16066   16067   16066   16068   16066   16069   16069   16070
   16069   16071   16069   16072   16072   16073   16072   16074
   16072   16075   16075   16076   16075   16077   16075   16078
   16078   16079   16078   16080   16078   16081   16082   16083
   16082   16087   16082   16091   16082   16095   16083   16084
   16083   16085   16083   16086   16087   16088   16087   16089
   16087   16090   16091   16092   16091   16093   16091   16094
   16095   16096   16095   16097   16095   16098   16098   16099
   16098   16100   16098   16105   16101   16104   16101   16102
   16101   16103   16101   16105   16104   16106   16106   16107
   16106   16108   16106   16109   16109   16110   16109   16117
   16109   16111   16111   16112   16112   16114   16112   16113
   16114   16115   16114   16116   16114   16126   16117   16118
   16117   16119   16117   16120   16120   16121   16121   16123
   16121   16122   16123   16124   16123   16125   16123   16163
   16126   16127   16126   16128   16126   16129   16129   16130
   16129   16131   16129   16132   16132   16133   16132   16134
   16132   16135   16135   16136   16135   16137   16135   16138
   16138   16139   16138   16140   16138   16141   16141   16142
   16141   16143   16141   16144   16144   16145   16144   16146
   16144   16147   16147   16148   16147   16149   16147   16150
   16150   16151   16150   16152   16150   16153   16153   16154
   16153   16155   16153   16156   16156   16157   16156   16158
   16156   16159   16159   16160   16159   16161   16159   16162
   16163   16164   16163   16165   16163   16166   16166   16167
   16166   16168   16166   16169   16169   16170   16169   16171
   16169   16172   16172   16173   16172   16174   16172   16175
   16175   16176   16175   16177   16175   16178   16178   16179
   16178   16180   16178   16181   16181   16182   16181   16183
   16181   16184   16184   16185   16184   16186   16184   16187
   16187   16188   16187   16189   16187   16190   16190   16191
   16190   16192   16190   16193   16193   16194   16193   16195
   16193   16196   16196   16197   16196   16198   16196   16199
   16200   16201   16200   16205   16200   16209   16200   16213
   16201   16202   16201   16203   16201   16204   16205   16206
   16205   16207   16205   16208   16209   16210   16209   16211
   16209   16212   16213   16214   16213   16215   16213   16216
   16216   16217   16216   16218   16216   16223   16219   16222
   16219   16220   16219   16221   16219   16223   16222   16224
   16224   16225   16224   16226   16224   16227   16227   16228
   16227   16235   16227   16229   16229   16230   16230   16232
   16230   16231   16232   16233   16232   16234   16232   16244
   16235   16236   16235   16237   16235   16238   16238   16239
   16239   16241   16239   16240   16241   16242   16241   16243
   16241   16281   16244   16245   16244   16246   16244   16247
   16247   16248   16247   16249   16247   16250   16250   16251
   16250   16252   16250   16253   16253   16254   16253   16255
   16253   16256   16256   16257   16256   16258   16256   16259
   16259   16260   16259   16261   16259   16262   16262   16263
   16262   16264   16262   16265   16265   16266   16265   16267
   16265   16268   16268   16269   16268   16270   16268   16271
   16271   16272   16271   16273   16271   16274   16274   16275
   16274   16276   16274   16277   16277   16278   16277   16279
   16277   16280   16281   16282   16281   16283   16281   16284
   16284   16285   16284   16286   16284   16287   16287   16288
   16287   16289   16287   16290   16290   16291   16290   16292
   16290   16293   16293   16294   16293   16295   16293   16296
   16296   16297   16296   16298   16296   16299   16299   16300
   16299   16301   16299   16302   16302   16303   16302   16304
   16302   16305   16305   16306   16305   16307   16305   16308
   16308   16309   16308   16310   16308   16311   16311   16312
   16311   16313   16311   16314   16314   16315   16314   16316
   16314   16317   16318   16319   16318   16323   16318   16327
   16318   16331   16319   16320   16319   16321   16319   16322
   16323   16324   16323   16325   16323   16326   16327   16328
   16327   16329   16327   16330   16331   16332   16331   16333
   16331   16334   16334   16335   16334   16336   16334   16341
   16337   16340   16337   16338   16337   16339   16337   16341
   16340   16342   16342   16343   16342   16344   16342   16345
   16345   16346   16345   16353   16345   16347   16347   16348
   16348   16350   16348   16349   16350   16351   16350   16352
   16350   16362   16353   16354   16353   16355   16353   16356
   16356   16357   16357   16359   16357   16358   16359   16360
   16359   16361   16359   16399   16362   16363   16362   16364
   16362   16365   16365   16366   16365   16367   16365   16368
   16368   16369   16368   16370   16368   16371   16371   16372
   16371   16373   16371   16374   16374   16375   16374   16376
   16374   16377   16377   16378   16377   16379   16377   16380
   16380   16381   16380   16382   16380   16383   16383   16384
   16383   16385   16383   16386   16386   16387   16386   16388
   16386   16389   16389   16390   16389   16391   16389   16392
   16392   16393   16392   16394   16392   16395   16395   16396
   16395   16397   16395   16398   16399   16400   16399   16401
   16399   16402   16402   16403   16402   16404   16402   16405
   16405   16406   16405   16407   16405   16408   16408   16409
   16408   16410   16408   16411   16411   16412   16411   16413
   16411   16414   16414   16415   16414   16416   16414   16417
   16417   16418   16417   16419   16417   16420   16420   16421
   16420   16422   16420   16423   16423   16424   16423   16425
   16423   16426   16426   16427   16426   16428   16426   16429
   16429   16430   16429   16431   16429   16432   16432   16433
   16432   16434   16432   16435   16436   16437   16436   16441
   16436   16445   16436   16449   16437   16438   16437   16439
   16437   16440   16441   16442   16441   16443   16441   16444
   16445   16446   16445   16447   16445   16448   16449   16450
   16449   16451   16449   16452   16452   16453   16452   16454
   16452   16459   16455   16458   16455   16456   16455   16457
   16455   16459   16458   16460   16460   16461   16460   16462
   16460   16463   16463   16464   16463   16471   16463   16465
   16465   16466   16466   16468   16466   16467   16468   16469
   16468   16470   16468   16480   16471   16472   16471   16473
   16471   16474   16474   16475   16475   16477   16475   16476
   16477   16478   16477   16479   16477   16517   16480   16481
   16480   16482   16480   16483   16483   16484   16483   16485
   16483   16486   16486   16487   16486   16488   16486   16489
   16489   16490   16489   16491   16489   16492   16492   16493
   16492   16494   16492   16495   16495   16496   16495   16497
   16495   16498   16498   16499   16498   16500   16498   16501
   16501   16502   16501   16503   16501   16504   16504   16505
   16504   16506   16504   16507   16507   16508   16507   16509
   16507   16510   16510   16511   16510   16512   16510   16513
   16513   16514   16513   16515   16513   16516   16517   16518
   16517   16519   16517   16520   16520   16521   16520   16522
   16520   16523   16523   16524   16523   16525   16523   16526
   16526   16527   16526   16528   16526   16529   16529   16530
   16529   16531   16529   16532   16532   16533   16532   16534
   16532   16535   16535   16536   16535   16537   16535   16538
   16538   16539   16538   16540   16538   16541   16541   16542
   16541   16543   16541   16544   16544   16545   16544   16546
   16544   16547   16547   16548   16547   16549   16547   16550
   16550   16551   16550   16552   16550   16553   16554   16555
   16554   16559   16554   16563   16554   16567   16555   16556
   16555   16557   16555   16558   16559   16560   16559   16561
   16559   16562   16563   16564   16563   16565   16563   16566
   16567   16568   16567   16569   16567   16570   16570   16571
   16570   16572   16570   16577   16573   16576   16573   16574
   16573   16575   16573   16577   16576   16578   16578   16579
   16578   16580   16578   16581   16581   16582   16581   16589
   16581   16583   16583   16584   16584   16586   16584   16585
   16586   16587   16586   16588   16586   16598   16589   16590
   16589   16591   16589   16592   16592   16593   16593   16595
   16593   16594   16595   16596   16595   16597   16595   16635
   16598   16599   16598   16600   16598   16601   16601   16602
   16601   16603   16601   16604   16604   16605   16604   16606
   16604   16607   16607   16608   16607   16609   16607   16610
   16610   16611   16610   16612   16610   16613   16613   16614
   16613   16615   16613   16616   16616   16617   16616   16618
   16616   16619   16619   16620   16619   16621   16619   16622
   16622   16623   16622   16624   16622   16625   16625   16626
   16625   16627   16625   16628   16628   16629   16628   16630
   16628   16631   16631   16632   16631   16633   16631   16634
   16635   16636   16635   16637   16635   16638   16638   16639
   16638   16640   16638   16641   16641   16642   16641   16643
   16641   16644   16644   16645   16644   16646   16644   16647
   16647   16648   16647   16649   16647   16650   16650   16651
   16650   16652   16650   16653   16653   16654   16653   16655
   16653   16656   16656   16657   16656   16658   16656   16659
   16659   16660   16659   16661   16659   16662   16662   16663
   16662   16664   16662   16665   16665   16666   16665   16667
   16665   16668   16668   16669   16668   16670   16668   16671
   16672   16673   16672   16677   16672   16681   16672   16685
   16673   16674   16673   16675   16673   16676   16677   16678
   16677   16679   16677   16680   16681   16682   16681   16683
   16681   16684   16685   16686   16685   16687   16685   16688
   16688   16689   16688   16690   16688   16695   16691   16694
   16691   16692   16691   16693   16691   16695   16694   16696
   16696   16697   16696   16698   16696   16699   16699   16700
   16699   16707   16699   16701   16701   16702   16702   16704
   16702   16703   16704   16705   16704   16706   16704   16716
   16707   16708   16707   16709   16707   16710   16710   16711
   16711   16713   16711   16712   16713   16714   16713   16715
   16713   16753   16716   16717   16716   16718   16716   16719
   16719   16720   16719   16721   16719   16722   16722   16723
   16722   16724   16722   16725   16725   16726   16725   16727
   16725   16728   16728   16729   16728   16730   16728   16731
   16731   16732   16731   16733   16731   16734   16734   16735
   16734   16736   16734   16737   16737   16738   16737   16739
   16737   16740   16740   16741   16740   16742   16740   16743
   16743   16744   16743   16745   16743   16746   16746   16747
   16746   16748   16746   16749   16749   16750   16749   16751
   16749   16752   16753   16754   16753   16755   16753   16756
   16756   16757   16756   16758   16756   16759   16759   16760
   16759   16761   16759   16762   16762   16763   16762   16764
   16762   16765   16765   16766   16765   16767   16765   16768
   16768   16769   16768   16770   16768   16771   16771   16772
   16771   16773   16771   16774   16774   16775   16774   16776
   16774   16777   16777   16778   16777   16779   16777   16780
   16780   16781   16780   16782   16780   16783   16783   16784
   16783   16785   16783   16786   16786   16787   16786   16788
   16786   16789   16790   16791   16790   16795   16790   16799
   16790   16803   16791   16792   16791   16793   16791   16794
   16795   16796   16795   16797   16795   16798   16799   16800
   16799   16801   16799   16802   16803   16804   16803   16805
   16803   16806   16806   16807   16806   16808   16806   16813
   16809   16812   16809   16810   16809   16811   16809   16813
   16812   16814   16814   16815   16814   16816   16814   16817
   16817   16818   16817   16825   16817   16819   16819   16820
   16820   16822   16820   16821   16822   16823   16822   16824
   16822   16834   16825   16826   16825   16827   16825   16828
   16828   16829   16829   16831   16829   16830   16831   16832
   16831   16833   16831   16871   16834   16835   16834   16836
   16834   16837   16837   16838   16837   16839   16837   16840
   16840   16841   16840   16842   16840   16843   16843   16844
   16843   16845   16843   16846   16846   16847   16846   16848
   16846   16849   16849   16850   16849   16851   16849   16852
   16852   16853   16852   16854   16852   16855   16855   16856
   16855   16857   16855   16858   16858   16859   16858   16860
   16858   16861   16861   16862   16861   16863   16861   16864
   16864   16865   16864   16866   16864   16867   16867   16868
   16867   16869   16867   16870   16871   16872   16871   16873
   16871   16874   16874   16875   16874   16876   16874   16877
   16877   16878   16877   16879   16877   16880   16880   16881
   16880   16882   16880   16883   16883   16884   16883   16885
   16883   16886   16886   16887   16886   16888   16886   16889
   16889   16890   16889   16891   16889   16892   16892   16893
   16892   16894   16892   16895   16895   16896   16895   16897
   16895   16898   16898   16899   16898   16900   16898   16901
   16901   16902   16901   16903   16901   16904   16904   16905
   16904   16906   16904   16907   16908   16909   16908   16913
   16908   16917   16908   16921   16909   16910   16909   16911
   16909   16912   16913   16914   16913   16915   16913   16916
   16917   16918   16917   16919   16917   16920   16921   16922
   16921   16923   16921   16924   16924   16925   16924   16926
   16924   16931   16927   16930   16927   16928   16927   16929
   16927   16931   16930   16932   16932   16933   16932   16934
   16932   16935   16935   16936   16935   16943   16935   16937
   16937   16938   16938   16940   16938   16939   16940   16941
   16940   16942   16940   16952   16943   16944   16943   16945
   16943   16946   16946   16947   16947   16949   16947   16948
   16949   16950   16949   16951   16949   16989   16952   16953
   16952   16954   16952   16955   16955   16956   16955   16957
   16955   16958   16958   16959   16958   16960   16958   16961
   16961   16962   16961   16963   16961   16964   16964   16965
   16964   16966   16964   16967   16967   16968   16967   16969
   16967   16970   16970   16971   16970   16972   16970   16973
   16973   16974   16973   16975   16973   16976   16976   16977
   16976   16978   16976   16979   16979   16980   16979   16981
   16979   16982   16982   16983   16982   16984   16982   16985
   16985   16986   16985   16987   16985   16988   16989   16990
   16989   16991   16989   16992   16992   16993   16992   16994
   16992   16995   16995   16996   16995   16997   16995   16998
   16998   16999   16998   17000   16998   17001   17001   17002
   17001   17003   17001   17004   17004   17005   17004   17006
   17004   17007   17007   17008   17007   17009   17007   17010
   17010   17011   17010   17012   17010   17013   17013   17014
   17013   17015   17013   17016   17016   17017   17016   17018
   17016   17019   17019   17020   17019   17021   17019   17022
   17022   17023   17022   17024   17022   17025   17026   17027
   17026   17031   17026   17035   17026   17039   17027   17028
   17027   17029   17027   17030   17031   17032   17031   17033
   17031   17034   17035   17036   17035   17037   17035   17038
   17039   17040   17039   17041   17039   17042   17042   17043
   17042   17044   17042   17049   17045   17048   17045   17046
   17045   17047   17045   17049   17048   17050   17050   17051
   17050   17052   17050   17053   17053   17054   17053   17061
   17053   17055   17055   17056   17056   17058   17056   17057
   17058   17059   17058   17060   17058   17070   17061   17062
   17061   17063   17061   17064   17064   17065   17065   17067
   17065   17066   17067   17068   17067   17069   17067   17107
   17070   17071   17070   17072   17070   17073   17073   17074
   17073   17075   17073   17076   17076   17077   17076   17078
   17076   17079   17079   17080   17079   17081   17079   17082
   17082   17083   17082   17084   17082   17085   17085   17086
   17085   17087   17085   17088   17088   17089   17088   17090
   17088   17091   17091   17092   17091   17093   17091   17094
   17094   17095   17094   17096   17094   17097   17097   17098
   17097   17099   17097   17100   17100   17101   17100   17102
   17100   17103   17103   17104   17103   17105   17103   17106
   17107   17108   17107   17109   17107   17110   17110   17111
   17110   17112   17110   17113   17113   17114   17113   17115
   17113   17116   17116   17117   17116   17118   17116   17119
   17119   17120   17119   17121   17119   17122   17122   17123
   17122   17124   17122   17125   17125   17126   17125   17127
   17125   17128   17128   17129   17128   17130   17128   17131
   17131   17132   17131   17133   17131   17134   17134   17135
   17134   17136   17134   17137   17137   17138   17137   17139
   17137   17140   17140   17141   17140   17142   17140   17143
   17144   17145   17144   17149   17144   17153   17144   17157
   17145   17146   17145   17147   17145   17148   17149   17150
   17149   17151   17149   17152   17153   17154   17153   17155
   17153   17156   17157   17158   17157   17159   17157   17160
   17160   17161   17160   17162   17160   17167   17163   17166
   17163   17164   17163   17165   17163   17167   17166   17168
   17168   17169   17168   17170   17168   17171   17171   17172
   17171   17179   17171   17173   17173   17174   17174   17176
   17174   17175   17176   17177   17176   17178   17176   17188
   17179   17180   17179   17181   17179   17182   17182   17183
   17183   17185   17183   17184   17185   17186   17185   17187
   17185   17225   17188   17189   17188   17190   17188   17191
   17191   17192   17191   17193   17191   17194   17194   17195
   17194   17196   17194   17197   17197   17198   17197   17199
   17197   17200   17200   17201   17200   17202   17200   17203
   17203   17204   17203   17205   17203   17206   17206   17207
   17206   17208   17206   17209   17209   17210   17209   17211
   17209   17212   17212   17213   17212   17214   17212   17215
   17215   17216   17215   17217   17215   17218   17218   17219
   17218   17220   17218   17221   17221   17222   17221   17223
   17221   17224   17225   17226   17225   17227   17225   17228
   17228   17229   17228   17230   17228   17231   17231   17232
   17231   17233   17231   17234   17234   17235   17234   17236
   17234   17237   17237   17238   17237   17239   17237   17240
   17240   17241   17240   17242   17240   17243   17243   17244
   17243   17245   17243   17246   17246   17247   17246   17248
   17246   17249   17249   17250   17249   17251   17249   17252
   17252   17253   17252   17254   17252   17255   17255   17256
   17255   17257   17255   17258   17258   17259   17258   17260
   17258   17261   17262   17263   17262   17267   17262   17271
   17262   17275   17263   17264   17263   17265   17263   17266
   17267   17268   17267   17269   17267   17270   17271   17272
   17271   17273   17271   17274   17275   17276   17275   17277
   17275   17278   17278   17279   17278   17280   17278   17285
   17281   17284   17281   17282   17281   17283   17281   17285
   17284   17286   17286   17287   17286   17288   17286   17289
   17289   17290   17289   17297   17289   17291   17291   17292
   17292   17294   17292   17293   17294   17295   17294   17296
   17294   17306   17297   17298   17297   17299   17297   17300
   17300   17301   17301   17303   17301   17302   17303   17304
   17303   17305   17303   17343   17306   17307   17306   17308
   17306   17309   17309   17310   17309   17311   17309   17312
   17312   17313   17312   17314   17312   17315   17315   17316
   17315   17317   17315   17318   17318   17319   17318   17320
   17318   17321   17321   17322   17321   17323   17321   17324
   17324   17325   17324   17326   17324   17327   17327   17328
   17327   17329   17327   17330   17330   17331   17330   17332
   17330   17333   17333   17334   17333   17335   17333   17336
   17336   17337   17336   17338   17336   17339   17339   17340
   17339   17341   17339   17342   17343   17344   17343   17345
   17343   17346   17346   17347   17346   17348   17346   17349
   17349   17350   17349   17351   17349   17352   17352   17353
   17352   17354   17352   17355   17355   17356   17355   17357
   17355   17358   17358   17359   17358   17360   17358   17361
   17361   17362   17361   17363   17361   17364   17364   17365
   17364   17366   17364   17367   17367   17368   17367   17369
   17367   17370   17370   17371   17370   17372   17370   17373
   17373   17374   17373   17375   17373   17376   17376   17377
   17376   17378   17376   17379   17380   17381   17380   17385
   17380   17389   17380   17393   17381   17382   17381   17383
   17381   17384   17385   17386   17385   17387   17385   17388
   17389   17390   17389   17391   17389   17392   17393   17394
   17393   17395   17393   17396   17396   17397   17396   17398
   17396   17403   17399   17402   17399   17400   17399   17401
   17399   17403   17402   17404   17404   17405   17404   17406
   17404   17407   17407   17408   17407   17415   17407   17409
   17409   17410   17410   17412   17410   17411   17412   17413
   17412   17414   17412   17424   17415   17416   17415   17417
   17415   17418   17418   17419   17419   17421   17419   17420
   17421   17422   17421   17423   17421   17461   17424   17425
   17424   17426   17424   17427   17427   17428   17427   17429
   17427   17430   17430   17431   17430   17432   17430   17433
   17433   17434   17433   17435   17433   17436   17436   17437
   17436   17438   17436   17439   17439   17440   17439   17441
   17439   17442   17442   17443   17442   17444   17442   17445
   17445   17446   17445   17447   17445   17448   17448   17449
   17448   17450   17448   17451   17451   17452   17451   17453
   17451   17454   17454   17455   17454   17456   17454   17457
   17457   17458   17457   17459   17457   17460   17461   17462
   17461   17463   17461   17464   17464   17465   17464   17466
   17464   17467   17467   17468   17467   17469   17467   17470
   17470   17471   17470   17472   17470   17473   17473   17474
   17473   17475   17473   17476   17476   17477   17476   17478
   17476   17479   17479   17480   17479   17481   17479   17482
   17482   17483   17482   17484   17482   17485   17485   17486
   17485   17487   17485   17488   17488   17489   17488   17490
   17488   17491   17491   17492   17491   17493   17491   17494
   17494   17495   17494   17496   17494   17497   17498   17499
   17498   17503   17498   17507   17498   17511   17499   17500
   17499   17501   17499   17502   17503   17504   17503   17505
   17503   17506   17507   17508   17507   17509   17507   17510
   17511   17512   17511   17513   17511   17514   17514   17515
   17514   17516   17514   17521   17517   17520   17517   17518
   17517   17519   17517   17521   17520   17522   17522   17523
   17522   17524   17522   17525   17525   17526   17525   17533
   17525   17527   17527   17528   17528   17530   17528   17529
   17530   17531   17530   17532   17530   17542   17533   17534
   17533   17535   17533   17536   17536   17537   17537   17539
   17537   17538   17539   17540   17539   17541   17539   17579
   17542   17543   17542   17544   17542   17545   17545   17546
   17545   17547   17545   17548   17548   17549   17548   17550
   17548   17551   17551   17552   17551   17553   17551   17554
   17554   17555   17554   17556   17554   17557   17557   17558
   17557   17559   17557   17560   17560   17561   17560   17562
   17560   17563   17563   17564   17563   17565   17563   17566
   17566   17567   17566   17568   17566   17569   17569   17570
   17569   17571   17569   17572   17572   17573   17572   17574
   17572   17575   17575   17576   17575   17577   17575   17578
   17579   17580   17579   17581   17579   17582   17582   17583
   17582   17584   17582   17585   17585   17586   17585   17587
   17585   17588   17588   17589   17588   17590   17588   17591
   17591   17592   17591   17593   17591   17594   17594   17595
   17594   17596   17594   17597   17597   17598   17597   17599
   17597   17600   17600   17601   17600   17602   17600   17603
   17603   17604   17603   17605   17603   17606   17606   17607
   17606   17608   17606   17609   17609   17610   17609   17611
   17609   17612   17612   17613   17612   17614   17612   17615
   17616   17617   17616   17621   17616   17625   17616   17629
   17617   17618   17617   17619   17617   17620   17621   17622
   17621   17623   17621   17624   17625   17626   17625   17627
   17625   17628   17629   17630   17629   17631   17629   17632
   17632   17633   17632   17634   17632   17639   17635   17638
   17635   17636   17635   17637   17635   17639   17638   17640
   17640   17641   17640   17642   17640   17643   17643   17644
   17643   17651   17643   17645   17645   17646   17646   17648
   17646   17647   17648   17649   17648   17650   17648   17660
   17651   17652   17651   17653   17651   17654   17654   17655
   17655   17657   17655   17656   17657   17658   17657   17659
   17657   17697   17660   17661   17660   17662   17660   17663
   17663   17664   17663   17665   17663   17666   17666   17667
   17666   17668   17666   17669   17669   17670   17669   17671
   17669   17672   17672   17673   17672   17674   17672   17675
   17675   17676   17675   17677   17675   17678   17678   17679
   17678   17680   17678   17681   17681   17682   17681   17683
   17681   17684   17684   17685   17684   17686   17684   17687
   17687   17688   17687   17689   17687   17690   17690   17691
   17690   17692   17690   17693   17693   17694   17693   17695
   17693   17696   17697   17698   17697   17699   17697   17700
   17700   17701   17700   17702   17700   17703   17703   17704
   17703   17705   17703   17706   17706   17707   17706   17708
   17706   17709   17709   17710   17709   17711   17709   17712
   17712   17713   17712   17714   17712   17715   17715   17716
   17715   17717   17715   17718   17718   17719   17718   17720
   17718   17721   17721   17722   17721   17723   17721   17724
   17724   17725   17724   17726   17724   17727   17727   17728
   17727   17729   17727   17730   17730   17731   17730   17732
   17730   17733   17734   17735   17734   17739   17734   17743
   17734   17747   17735   17736   17735   17737   17735   17738
   17739   17740   17739   17741   17739   17742   17743   17744
   17743   17745   17743   17746   17747   17748   17747   17749
   17747   17750   17750   17751   17750   17752   17750   17757
   17753   17756   17753   17754   17753   17755   17753   17757
   17756   17758   17758   17759   17758   17760   17758   17761
   17761   17762   17761   17769   17761   17763   17763   17764
   17764   17766   17764   17765   17766   17767   17766   17768
   17766   17778   17769   17770   17769   17771   17769   17772
   17772   17773   17773   17775   17773   17774   17775   17776
   17775   17777   17775   17815   17778   17779   17778   17780
   17778   17781   17781   17782   17781   17783   17781   17784
   17784   17785   17784   17786   17784   17787   17787   17788
   17787   17789   17787   17790   17790   17791   17790   17792
   17790   17793   17793   17794   17793   17795   17793   17796
   17796   17797   17796   17798   17796   17799   17799   17800
   17799   17801   17799   17802   17802   17803   17802   17804
   17802   17805   17805   17806   17805   17807   17805   17808
   17808   17809   17808   17810   17808   17811   17811   17812
   17811   17813   17811   17814   17815   17816   17815   17817
   17815   17818   17818   17819   17818   17820   17818   17821
   17821   17822   17821   17823   17821   17824   17824   17825
   17824   17826   17824   17827   17827   17828   17827   17829
   17827   17830   17830   17831   17830   17832   17830   17833
   17833   17834   17833   17835   17833   17836   17836   17837
   17836   17838   17836   17839   17839   17840   17839   17841
   17839   17842   17842   17843   17842   17844   17842   17845
   17845   17846   17845   17847   17845   17848   17848   17849
   17848   17850   17848   17851   17852   17853   17852   17857
   17852   17861   17852   17865   17853   17854   17853   17855
   17853   17856   17857   17858   17857   17859   17857   17860
   17861   17862   17861   17863   17861   17864   17865   17866
   17865   17867   17865   17868   17868   17869   17868   17870
   17868   17875   17871   17874   17871   17872   17871   17873
   17871   17875   17874   17876   17876   17877   17876   17878
   17876   17879   17879   17880   17879   17887   17879   17881
   17881   17882   17882   17884   17882   17883   17884   17885
   17884   17886   17884   17896   17887   17888   17887   17889
   17887   17890   17890   17891   17891   17893   17891   17892
   17893   17894   17893   17895   17893   17933   17896   17897
   17896   17898   17896   17899   17899   17900   17899   17901
   17899   17902   17902   17903   17902   17904   17902   17905
   17905   17906   17905   17907   17905   17908   17908   17909
   17908   17910   17908   17911   17911   17912   17911   17913
   17911   17914   17914   17915   17914   17916   17914   17917
   17917   17918   17917   17919   17917   17920   17920   17921
   17920   17922   17920   17923   17923   17924   17923   17925
   17923   17926   17926   17927   17926   17928   17926   17929
   17929   17930   17929   17931   17929   17932   17933   17934
   17933   17935   17933   17936   17936   17937   17936   17938
   17936   17939   17939   17940   17939   17941   17939   17942
   17942   17943   17942   17944   17942   17945   17945   17946
   17945   17947   17945   17948   17948   17949   17948   17950
   17948   17951   17951   17952   17951   17953   17951   17954
   17954   17955   17954   17956   17954   17957   17957   17958
   17957   17959   17957   17960   17960   17961   17960   17962
   17960   17963   17963   17964   17963   17965   17963   17966
   17966   17967   17966   17968   17966   17969   17970   17971
   17970   17975   17970   17979   17970   17983   17971   17972
   17971   17973   17971   17974   17975   17976   17975   17977
   17975   17978   17979   17980   17979   17981   17979   17982
   17983   17984   17983   17985   17983   17986   17986   17987
   17986   17988   17986   17993   17989   17992   17989   17990
   17989   17991   17989   17993   17992   17994   17994   17995
   17994   17996   17994   17997   17997   17998   17997   18005
   17997   17999   17999   18000   18000   18002   18000   18001
   18002   18003   18002   18004   18002   18014   18005   18006
   18005   18007   18005   18008   18008   18009   18009   18011
   18009   18010   18011   18012   18011   18013   18011   18051
   18014   18015   18014   18016   18014   18017   18017   18018
   18017   18019   18017   18020   18020   18021   18020   18022
   18020   18023   18023   18024   18023   18025   18023   18026
   18026   18027   18026   18028   18026   18029   18029   18030
   18029   18031   18029   18032   18032   18033   18032   18034
   18032   18035   18035   18036   18035   18037   18035   18038
   18038   18039   18038   18040   18038   18041   18041   18042
   18041   18043   18041   18044   18044   18045   18044   18046
   18044   18047   18047   18048   18047   18049   18047   18050
   18051   18052   18051   18053   18051   18054   18054   18055
   18054   18056   18054   18057   18057   18058   18057   18059
   18057   18060   18060   18061   18060   18062   18060   18063
   18063   18064   18063   18065   18063   18066   18066   18067
   18066   18068   18066   18069   18069   18070   18069   18071
   18069   18072   18072   18073   18072   18074   18072   18075
   18075   18076   18075   18077   18075   18078   18078   18079
   18078   18080   18078   18081   18081   18082   18081   18083
   18081   18084   18084   18085   18084   18086   18084   18087
   18088   18089   18088   18093   18088   18097   18088   18101
   18089   18090   18089   18091   18089   18092   18093   18094
   18093   18095   18093   18096   18097   18098   18097   18099
   18097   18100   18101   18102   18101   18103   18101   18104
   18104   18105   18104   18106   18104   18111   18107   18110
   18107   18108   18107   18109   18107   18111   18110   18112
   18112   18113   18112   18114   18112   18115   18115   18116
   18115   18123   18115   18117   18117   18118   18118   18120
   18118   18119   18120   18121   18120   18122   18120   18132
   18123   18124   18123   18125   18123   18126   18126   18127
   18127   18129   18127   18128   18129   18130   18129   18131
   18129   18169   18132   18133   18132   18134   18132   18135
   18135   18136   18135   18137   18135   18138   18138   18139
   18138   18140   18138   18141   18141   18142   18141   18143
   18141   18144   18144   18145   18144   18146   18144   18147
   18147   18148   18147   18149   18147   18150   18150   18151
   18150   18152   18150   18153   18153   18154   18153   18155
   18153   18156   18156   18157   18156   18158   18156   18159
   18159   18160   18159   18161   18159   18162   18162   18163
   18162   18164   18162   18165   18165   18166   18165   18167
   18165   18168   18169   18170   18169   18171   18169   18172
   18172   18173   18172   18174   18172   18175   18175   18176
   18175   18177   18175   18178   18178   18179   18178   18180
   18178   18181   18181   18182   18181   18183   18181   18184
   18184   18185   18184   18186   18184   18187   18187   18188
   18187   18189   18187   18190   18190   18191   18190   18192
   18190   18193   18193   18194   18193   18195   18193   18196
   18196   18197   18196   18198   18196   18199   18199   18200
   18199   18201   18199   18202   18202   18203   18202   18204
   18202   18205   18206   18207   18206   18211   18206   18215
   18206   18219   18207   18208   18207   18209   18207   18210
   18211   18212   18211   18213   18211   18214   18215   18216
   18215   18217   18215   18218   18219   18220   18219   18221
   18219   18222   18222   18223   18222   18224   18222   18229
   18225   18228   18225   18226   18225   18227   18225   18229
   18228   18230   18230   18231   18230   18232   18230   18233
   18233   18234   18233   18241   18233   18235   18235   18236
   18236   18238   18236   18237   18238   18239   18238   18240
   18238   18250   18241   18242   18241   18243   18241   18244
   18244   18245   18245   18247   18245   18246   18247   18248
   18247   18249   18247   18287   18250   18251   18250   18252
   18250   18253   18253   18254   18253   18255   18253   18256
   18256   18257   18256   18258   18256   18259   18259   18260
   18259   18261   18259   18262   18262   18263   18262   18264
   18262   18265   18265   18266   18265   18267   18265   18268
   18268   18269   18268   18270   18268   18271   18271   18272
   18271   18273   18271   18274   18274   18275   18274   18276
   18274   18277   18277   18278   18277   18279   18277   18280
   18280   18281   18280   18282   18280   18283   18283   18284
   18283   18285   18283   18286   18287   18288   18287   18289
   18287   18290   18290   18291   18290   18292   18290   18293
   18293   18294   18293   18295   18293   18296   18296   18297
   18296   18298   18296   18299   18299   18300   18299   18301
   18299   18302   18302   18303   18302   18304   18302   18305
   18305   18306   18305   18307   18305   18308   18308   18309
   18308   18310   18308   18311   18311   18312   18311   18313
   18311   18314   18314   18315   18314   18316   18314   18317
   18317   18318   18317   18319   18317   18320   18320   18321
   18320   18322   18320   18323   18324   18325   18324   18329
   18324   18333   18324   18337   18325   18326   18325   18327
   18325   18328   18329   18330   18329   18331   18329   18332
   18333   18334   18333   18335   18333   18336   18337   18338
   18337   18339   18337   18340   18340   18341   18340   18342
   18340   18347   18343   18346   18343   18344   18343   18345
   18343   18347   18346   18348   18348   18349   18348   18350
   18348   18351   18351   18352   18351   18359   18351   18353
   18353   18354   18354   18356   18354   18355   18356   18357
   18356   18358   18356   18368   18359   18360   18359   18361
   18359   18362   18362   18363   18363   18365   18363   18364
   18365   18366   18365   18367   18365   18405   18368   18369
   18368   18370   18368   18371   18371   18372   18371   18373
   18371   18374   18374   18375   18374   18376   18374   18377
   18377   18378   18377   18379   18377   18380   18380   18381
   18380   18382   18380   18383   18383   18384   18383   18385
   18383   18386   18386   18387   18386   18388   18386   18389
   18389   18390   18389   18391   18389   18392   18392   18393
   18392   18394   18392   18395   18395   18396   18395   18397
   18395   18398   18398   18399   18398   18400   18398   18401
   18401   18402   18401   18403   18401   18404   18405   18406
   18405   18407   18405   18408   18408   18409   18408   18410
   18408   18411   18411   18412   18411   18413   18411   18414
   18414   18415   18414   18416   18414   18417   18417   18418
   18417   18419   18417   18420   18420   18421   18420   18422
   18420   18423   18423   18424   18423   18425   18423   18426
   18426   18427   18426   18428   18426   18429   18429   18430
   18429   18431   18429   18432   18432   18433   18432   18434
   18432   18435   18435   18436   18435   18437   18435   18438
   18438   18439   18438   18440   18438   18441   18442   18443
   18442   18447   18442   18451   18442   18455   18443   18444
   18443   18445   18443   18446   18447   18448   18447   18449
   18447   18450   18451   18452   18451   18453   18451   18454
   18455   18456   18455   18457   18455   18458   18458   18459
   18458   18460   18458   18465   18461   18464   18461   18462
   18461   18463   18461   18465   18464   18466   18466   18467
   18466   18468   18466   18469   18469   18470   18469   18477
   18469   18471   18471   18472   18472   18474   18472   18473
   18474   18475   18474   18476   18474   18486   18477   18478
   18477   18479   18477   18480   18480   18481   18481   18483
   18481   18482   18483   18484   18483   18485   18483   18523
   18486   18487   18486   18488   18486   18489   18489   18490
   18489   18491   18489   18492   18492   18493   18492   18494
   18492   18495   18495   18496   18495   18497   18495   18498
   18498   18499   18498   18500   18498   18501   18501   18502
   18501   18503   18501   18504   18504   18505   18504   18506
   18504   18507   18507   18508   18507   18509   18507   18510
   18510   18511   18510   18512   18510   18513   18513   18514
   18513   18515   18513   18516   18516   18517   18516   18518
   18516   18519   18519   18520   18519   18521   18519   18522
   18523   18524   18523   18525   18523   18526   18526   18527
   18526   18528   18526   18529   18529   18530   18529   18531
   18529   18532   18532   18533   18532   18534   18532   18535
   18535   18536   18535   18537   18535   18538   18538   18539
   18538   18540   18538   18541   18541   18542   18541   18543
   18541   18544   18544   18545   18544   18546   18544   18547
   18547   18548   18547   18549   18547   18550   18550   18551
   18550   18552   18550   18553   18553   18554   18553   18555
   18553   18556   18556   18557   18556   18558   18556   18559
   18560   18561   18560   18565   18560   18569   18560   18573
   18561   18562   18561   18563   18561   18564   18565   18566
   18565   18567   18565   18568   18569   18570   18569   18571
   18569   18572   18573   18574   18573   18575   18573   18576
   18576   18577   18576   18578   18576   18583   18579   18582
   18579   18580   18579   18581   18579   18583   18582   18584
   18584   18585   18584   18586   18584   18587   18587   18588
   18587   18595   18587   18589   18589   18590   18590   18592
   18590   18591   18592   18593   18592   18594   18592   18604
   18595   18596   18595   18597   18595   18598   18598   18599
   18599   18601   18599   18600   18601   18602   18601   18603
   18601   18641   18604   18605   18604   18606   18604   18607
   18607   18608   18607   18609   18607   18610   18610   18611
   18610   18612   18610   18613   18613   18614   18613   18615
   18613   18616   18616   18617   18616   18618   18616   18619
   18619   18620   18619   18621   18619   18622   18622   18623
   18622   18624   18622   18625   18625   18626   18625   18627
   18625   18628   18628   18629   18628   18630   18628   18631
   18631   18632   18631   18633   18631   18634   18634   18635
   18634   18636   18634   18637   18637   18638   18637   18639
   18637   18640   18641   18642   18641   18643   18641   18644
   18644   18645   18644   18646   18644   18647   18647   18648
   18647   18649   18647   18650   18650   18651   18650   18652
   18650   18653   18653   18654   18653   18655   18653   18656
   18656   18657   18656   18658   18656   18659   18659   18660
   18659   18661   18659   18662   18662   18663   18662   18664
   18662   18665   18665   18666   18665   18667   18665   18668
   18668   18669   18668   18670   18668   18671   18671   18672
   18671   18673   18671   18674   18674   18675   18674   18676
   18674   18677   18678   18679   18678   18683   18678   18687
   18678   18691   18679   18680   18679   18681   18679   18682
   18683   18684   18683   18685   18683   18686   18687   18688
   18687   18689   18687   18690   18691   18692   18691   18693
   18691   18694   18694   18695   18694   18696   18694   18701
   18697   18700   18697   18698   18697   18699   18697   18701
   18700   18702   18702   18703   18702   18704   18702   18705
   18705   18706   18705   18713   18705   18707   18707   18708
   18708   18710   18708   18709   18710   18711   18710   18712
   18710   18722   18713   18714   18713   18715   18713   18716
   18716   18717   18717   18719   18717   18718   18719   18720
   18719   18721   18719   18759   18722   18723   18722   18724
   18722   18725   18725   18726   18725   18727   18725   18728
   18728   18729   18728   18730   18728   18731   18731   18732
   18731   18733   18731   18734   18734   18735   18734   18736
   18734   18737   18737   18738   18737   18739   18737   18740
   18740   18741   18740   18742   18740   18743   18743   18744
   18743   18745   18743   18746   18746   18747   18746   18748
   18746   18749   18749   18750   18749   18751   18749   18752
   18752   18753   18752   18754   18752   18755   18755   18756
   18755   18757   18755   18758   18759   18760   18759   18761
   18759   18762   18762   18763   18762   18764   18762   18765
   18765   18766   18765   18767   18765   18768   18768   18769
   18768   18770   18768   18771   18771   18772   18771   18773
   18771   18774   18774   18775   18774   18776   18774   18777
   18777   18778   18777   18779   18777   18780   18780   18781
   18780   18782   18780   18783   18783   18784   18783   18785
   18783   18786   18786   18787   18786   18788   18786   18789
   18789   18790   18789   18791   18789   18792   18792   18793
   18792   18794   18792   18795   18796   18797   18796   18801
   18796   18805   18796   18809   18797   18798   18797   18799
   18797   18800   18801   18802   18801   18803   18801   18804
   18805   18806   18805   18807   18805   18808   18809   18810
   18809   18811   18809   18812   18812   18813   18812   18814
   18812   18819   18815   18818   18815   18816   18815   18817
   18815   18819   18818   18820   18820   18821   18820   18822
   18820   18823   18823   18824   18823   18831   18823   18825
   18825   18826   18826   18828   18826   18827   18828   18829
   18828   18830   18828   18840   18831   18832   18831   18833
   18831   18834   18834   18835   18835   18837   18835   18836
   18837   18838   18837   18839   18837   18877   18840   18841
   18840   18842   18840   18843   18843   18844   18843   18845
   18843   18846   18846   18847   18846   18848   18846   18849
   18849   18850   18849   18851   18849   18852   18852   18853
   18852   18854   18852   18855   18855   18856   18855   18857
   18855   18858   18858   18859   18858   18860   18858   18861
   18861   18862   18861   18863   18861   18864   18864   18865
   18864   18866   18864   18867   18867   18868   18867   18869
   18867   18870   18870   18871   18870   18872   18870   18873
   18873   18874   18873   18875   18873   18876   18877   18878
   18877   18879   18877   18880   18880   18881   18880   18882
   18880   18883   18883   18884   18883   18885   18883   18886
   18886   18887   18886   18888   18886   18889   18889   18890
   18889   18891   18889   18892   18892   18893   18892   18894
   18892   18895   18895   18896   18895   18897   18895   18898
   18898   18899   18898   18900   18898   18901   18901   18902
   18901   18903   18901   18904   18904   18905   18904   18906
   18904   18907   18907   18908   18907   18909   18907   18910
   18910   18911   18910   18912   18910   18913   18914   18915
   18914   18919   18914   18923   18914   18927   18915   18916
   18915   18917   18915   18918   18919   18920   18919   18921
   18919   18922   18923   18924   18923   18925   18923   18926
   18927   18928   18927   18929   18927   18930   18930   18931
   18930   18932   18930   18937   18933   18936   18933   18934
   18933   18935   18933   18937   18936   18938   18938   18939
   18938   18940   18938   18941   18941   18942   18941   18949
   18941   18943   18943   18944   18944   18946   18944   18945
   18946   18947   18946   18948   18946   18958   18949   18950
   18949   18951   18949   18952   18952   18953   18953   18955
   18953   18954   18955   18956   18955   18957   18955   18995
   18958   18959   18958   18960   18958   18961   18961   18962
   18961   18963   18961   18964   18964   18965   18964   18966
   18964   18967   18967   18968   18967   18969   18967   18970
   18970   18971   18970   18972   18970   18973   18973   18974
   18973   18975   18973   18976   18976   18977   18976   18978
   18976   18979   18979   18980   18979   18981   18979   18982
   18982   18983   18982   18984   18982   18985   18985   18986
   18985   18987   18985   18988   18988   18989   18988   18990
   18988   18991   18991   18992   18991   18993   18991   18994
   18995   18996   18995   18997   18995   18998   18998   18999
   18998   19000   18998   19001   19001   19002   19001   19003
   19001   19004   19004   19005   19004   19006   19004   19007
   19007   19008   19007   19009   19007   19010   19010   19011
   19010   19012   19010   19013   19013   19014   19013   19015
   19013   19016   19016   19017   19016   19018   19016   19019
   19019   19020   19019   19021   19019   19022   19022   19023
   19022   19024   19022   19025   19025   19026   19025   19027
   19025   19028   19028   19029   19028   19030   19028   19031
   19032   19033   19032   19037   19032   19041   19032   19045
   19033   19034   19033   19035   19033   19036   19037   19038
   19037   19039   19037   19040   19041   19042   19041   19043
   19041   19044   19045   19046   19045   19047   19045   19048
   19048   19049   19048   19050   19048   19055   19051   19054
   19051   19052   19051   19053   19051   19055   19054   19056
   19056   19057   19056   19058   19056   19059   19059   19060
   19059   19067   19059   19061   19061   19062   19062   19064
   19062   19063   19064   19065   19064   19066   19064   19076
   19067   19068   19067   19069   19067   19070   19070   19071
   19071   19073   19071   19072   19073   19074   19073   19075
   19073   19113   19076   19077   19076   19078   19076   19079
   19079   19080   19079   19081   19079   19082   19082   19083
   19082   19084   19082   19085   19085   19086   19085   19087
   19085   19088   19088   19089   19088   19090   19088   19091
   19091   19092   19091   19093   19091   19094   19094   19095
   19094   19096   19094   19097   19097   19098   19097   19099
   19097   19100   19100   19101   19100   19102   19100   19103
   19103   19104   19103   19105   19103   19106   19106   19107
   19106   19108   19106   19109   19109   19110   19109   19111
   19109   19112   19113   19114   19113   19115   19113   19116
   19116   19117   19116   19118   19116   19119   19119   19120
   19119   19121   19119   19122   19122   19123   19122   19124
   19122   19125   19125   19126   19125   19127   19125   19128
   19128   19129   19128   19130   19128   19131   19131   19132
   19131   19133   19131   19134   19134   19135   19134   19136
   19134   19137   19137   19138   19137   19139   19137   19140
   19140   19141   19140   19142   19140   19143   19143   19144
   19143   19145   19143   19146   19146   19147   19146   19148
   19146   19149   19150   19151   19150   19155   19150   19159
   19150   19163   19151   19152   19151   19153   19151   19154
   19155   19156   19155   19157   19155   19158   19159   19160
   19159   19161   19159   19162   19163   19164   19163   19165
   19163   19166   19166   19167   19166   19168   19166   19173
   19169   19172   19169   19170   19169   19171   19169   19173
   19172   19174   19174   19175   19174   19176   19174   19177
   19177   19178   19177   19185   19177   19179   19179   19180
   19180   19182   19180   19181   19182   19183   19182   19184
   19182   19194   19185   19186   19185   19187   19185   19188
   19188   19189   19189   19191   19189   19190   19191   19192
   19191   19193   19191   19231   19194   19195   19194   19196
   19194   19197   19197   19198   19197   19199   19197   19200
   19200   19201   19200   19202   19200   19203   19203   19204
   19203   19205   19203   19206   19206   19207   19206   19208
   19206   19209   19209   19210   19209   19211   19209   19212
   19212   19213   19212   19214   19212   19215   19215   19216
   19215   19217   19215   19218   19218   19219   19218   19220
   19218   19221   19221   19222   19221   19223   19221   19224
   19224   19225   19224   19226   19224   19227   19227   19228
   19227   19229   19227   19230   19231   19232   19231   19233
   19231   19234   19234   19235   19234   19236   19234   19237
   19237   19238   19237   19239   19237   19240   19240   19241
   19240   19242   19240   19243   19243   19244   19243   19245
   19243   19246   19246   19247   19246   19248   19246   19249
   19249   19250   19249   19251   19249   19252   19252   19253
   19252   19254   19252   19255   19255   19256   19255   19257
   19255   19258   19258   19259   19258   19260   19258   19261
   19261   19262   19261   19263   19261   19264   19264   19265
   19264   19266   19264   19267   19268   19269   19268   19273
   19268   19277   19268   19281   19269   19270   19269   19271
   19269   19272   19273   19274   19273   19275   19273   19276
   19277   19278   19277   19279   19277   19280   19281   19282
   19281   19283   19281   19284   19284   19285   19284   19286
   19284   19291   19287   19290   19287   19288   19287   19289
   19287   19291   19290   19292   19292   19293   19292   19294
   19292   19295   19295   19296   19295   19303   19295   19297
   19297   19298   19298   19300   19298   19299   19300   19301
   19300   19302   19300   19312   19303   19304   19303   19305
   19303   19306   19306   19307   19307   19309   19307   19308
   19309   19310   19309   19311   19309   19349   19312   19313
   19312   19314   19312   19315   19315   19316   19315   19317
   19315   19318   19318   19319   19318   19320   19318   19321
   19321   19322   19321   19323   19321   19324   19324   19325
   19324   19326   19324   19327   19327   19328   19327   19329
   19327   19330   19330   19331   19330   19332   19330   19333
   19333   19334   19333   19335   19333   19336   19336   19337
   19336   19338   19336   19339   19339   19340   19339   19341
   19339   19342   19342   19343   19342   19344   19342   19345
   19345   19346   19345   19347   19345   19348   19349   19350
   19349   19351   19349   19352   19352   19353   19352   19354
   19352   19355   19355   19356   19355   19357   19355   19358
   19358   19359   19358   19360   19358   19361   19361   19362
   19361   19363   19361   19364   19364   19365   19364   19366
   19364   19367   19367   19368   19367   19369   19367   19370
   19370   19371   19370   19372   19370   19373   19373   19374
   19373   19375   19373   19376   19376   19377   19376   19378
   19376   19379   19379   19380   19379   19381   19379   19382
   19382   19383   19382   19384   19382   19385   19386   19387
   19386   19391   19386   19395   19386   19399   19387   19388
   19387   19389   19387   19390   19391   19392   19391   19393
   19391   19394   19395   19396   19395   19397   19395   19398
   19399   19400   19399   19401   19399   19402   19402   19403
   19402   19404   19402   19409   19405   19408   19405   19406
   19405   19407   19405   19409   19408   19410   19410   19411
   19410   19412   19410   19413   19413   19414   19413   19421
   19413   19415   19415   19416   19416   19418   19416   19417
   19418   19419   19418   19420   19418   19430   19421   19422
   19421   19423   19421   19424   19424   19425   19425   19427
   19425   19426   19427   19428   19427   19429   19427   19467
   19430   19431   19430   19432   19430   19433   19433   19434
   19433   19435   19433   19436   19436   19437   19436   19438
   19436   19439   19439   19440   19439   19441   19439   19442
   19442   19443   19442   19444   19442   19445   19445   19446
   19445   19447   19445   19448   19448   19449   19448   19450
   19448   19451   19451   19452   19451   19453   19451   19454
   19454   19455   19454   19456   19454   19457   19457   19458
   19457   19459   19457   19460   19460   19461   19460   19462
   19460   19463   19463   19464   19463   19465   19463   19466
   19467   19468   19467   19469   19467   19470   19470   19471
   19470   19472   19470   19473   19473   19474   19473   19475
   19473   19476   19476   19477   19476   19478   19476   19479
   19479   19480   19479   19481   19479   19482   19482   19483
   19482   19484   19482   19485   19485   19486   19485   19487
   19485   19488   19488   19489   19488   19490   19488   19491
   19491   19492   19491   19493   19491   19494   19494   19495
   19494   19496   19494   19497   19497   19498   19497   19499
   19497   19500   19500   19501   19500   19502   19500   19503
   19504   19505   19504   19509   19504   19513   19504   19517
   19505   19506   19505   19507   19505   19508   19509   19510
   19509   19511   19509   19512   19513   19514   19513   19515
   19513   19516   19517   19518   19517   19519   19517   19520
   19520   19521   19520   19522   19520   19527   19523   19526
   19523   19524   19523   19525   19523   19527   19526   19528
   19528   19529   19528   19530   19528   19531   19531   19532
   19531   19539   19531   19533   19533   19534   19534   19536
   19534   19535   19536   19537   19536   19538   19536   19548
   19539   19540   19539   19541   19539   19542   19542   19543
   19543   19545   19543   19544   19545   19546   19545   19547
   19545   19585   19548   19549   19548   19550   19548   19551
   19551   19552   19551   19553   19551   19554   19554   19555
   19554   19556   19554   19557   19557   19558   19557   19559
   19557   19560   19560   19561   19560   19562   19560   19563
   19563   19564   19563   19565   19563   19566   19566   19567
   19566   19568   19566   19569   19569   19570   19569   19571
   19569   19572   19572   19573   19572   19574   19572   19575
   19575   19576   19575   19577   19575   19578   19578   19579
   19578   19580   19578   19581   19581   19582   19581   19583
   19581   19584   19585   19586   19585   19587   19585   19588
   19588   19589   19588   19590   19588   19591   19591   19592
   19591   19593   19591   19594   19594   19595   19594   19596
   19594   19597   19597   19598   19597   19599   19597   19600
   19600   19601   19600   19602   19600   19603   19603   19604
   19603   19605   19603   19606   19606   19607   19606   19608
   19606   19609   19609   19610   19609   19611   19609   19612
   19612   19613   19612   19614   19612   19615   19615   19616
   19615   19617   19615   19618   19618   19619   19618   19620
   19618   19621   19622   19623   19622   19627   19622   19631
   19622   19635   19623   19624   19623   19625   19623   19626
   19627   19628   19627   19629   19627   19630   19631   19632
   19631   19633   19631   19634   19635   19636   19635   19637
   19635   19638   19638   19639   19638   19640   19638   19645
   19641   19644   19641   19642   19641   19643   19641   19645
   19644   19646   19646   19647   19646   19648   19646   19649
   19649   19650   19649   19657   19649   19651   19651   19652
   19652   19654   19652   19653   19654   19655   19654   19656
   19654   19666   19657   19658   19657   19659   19657   19660
   19660   19661   19661   19663   19661   19662   19663   19664
   19663   19665   19663   19703   19666   19667   19666   19668
   19666   19669   19669   19670   19669   19671   19669   19672
   19672   19673   19672   19674   19672   19675   19675   19676
   19675   19677   19675   19678   19678   19679   19678   19680
   19678   19681   19681   19682   19681   19683   19681   19684
   19684   19685   19684   19686   19684   19687   19687   19688
   19687   19689   19687   19690   19690   19691   19690   19692
   19690   19693   19693   19694   19693   19695   19693   19696
   19696   19697   19696   19698   19696   19699   19699   19700
   19699   19701   19699   19702   19703   19704   19703   19705
   19703   19706   19706   19707   19706   19708   19706   19709
   19709   19710   19709   19711   19709   19712   19712   19713
   19712   19714   19712   19715   19715   19716   19715   19717
   19715   19718   19718   19719   19718   19720   19718   19721
   19721   19722   19721   19723   19721   19724   19724   19725
   19724   19726   19724   19727   19727   19728   19727   19729
   19727   19730   19730   19731   19730   19732   19730   19733
   19733   19734   19733   19735   19733   19736   19736   19737
   19736   19738   19736   19739   19740   19741   19740   19745
   19740   19749   19740   19753   19741   19742   19741   19743
   19741   19744   19745   19746   19745   19747   19745   19748
   19749   19750   19749   19751   19749   19752   19753   19754
   19753   19755   19753   19756   19756   19757   19756   19758
   19756   19763   19759   19762   19759   19760   19759   19761
   19759   19763   19762   19764   19764   19765   19764   19766
   19764   19767   19767   19768   19767   19775   19767   19769
   19769   19770   19770   19772   19770   19771   19772   19773
   19772   19774   19772   19784   19775   19776   19775   19777
   19775   19778   19778   19779   19779   19781   19779   19780
   19781   19782   19781   19783   19781   19821   19784   19785
   19784   19786   19784   19787   19787   19788   19787   19789
   19787   19790   19790   19791   19790   19792   19790   19793
   19793   19794   19793   19795   19793   19796   19796   19797
   19796   19798   19796   19799   19799   19800   19799   19801
   19799   19802   19802   19803   19802   19804   19802   19805
   19805   19806   19805   19807   19805   19808   19808   19809
   19808   19810   19808   19811   19811   19812   19811   19813
   19811   19814   19814   19815   19814   19816   19814   19817
   19817   19818   19817   19819   19817   19820   19821   19822
   19821   19823   19821   19824   19824   19825   19824   19826
   19824   19827   19827   19828   19827   19829   19827   19830
   19830   19831   19830   19832   19830   19833   19833   19834
   19833   19835   19833   19836   19836   19837   19836   19838
   19836   19839   19839   19840   19839   19841   19839   19842
   19842   19843   19842   19844   19842   19845   19845   19846
   19845   19847   19845   19848   19848   19849   19848   19850
   19848   19851   19851   19852   19851   19853   19851   19854
   19854   19855   19854   19856   19854   19857   19858   19859
   19858   19863   19858   19867   19858   19871   19859   19860
   19859   19861   19859   19862   19863   19864   19863   19865
   19863   19866   19867   19868   19867   19869   19867   19870
   19871   19872   19871   19873   19871   19874   19874   19875
   19874   19876   19874   19881   19877   19880   19877   19878
   19877   19879   19877   19881   19880   19882   19882   19883
   19882   19884   19882   19885   19885   19886   19885   19893
   19885   19887   19887   19888   19888   19890   19888   19889
   19890   19891   19890   19892   19890   19902   19893   19894
   19893   19895   19893   19896   19896   19897   19897   19899
   19897   19898   19899   19900   19899   19901   19899   19939
   19902   19903   19902   19904   19902   19905   19905   19906
   19905   19907   19905   19908   19908   19909   19908   19910
   19908   19911   19911   19912   19911   19913   19911   19914
   19914   19915   19914   19916   19914   19917   19917   19918
   19917   19919   19917   19920   19920   19921   19920   19922
   19920   19923   19923   19924   19923   19925   19923   19926
   19926   19927   19926   19928   19926   19929   19929   19930
   19929   19931   19929   19932   19932   19933   19932   19934
   19932   19935   19935   19936   19935   19937   19935   19938
   19939   19940   19939   19941   19939   19942   19942   19943
   19942   19944   19942   19945   19945   19946   19945   19947
   19945   19948   19948   19949   19948   19950   19948   19951
   19951   19952   19951   19953   19951   19954   19954   19955
   19954   19956   19954   19957   19957   19958   19957   19959
   19957   19960   19960   19961   19960   19962   19960   19963
   19963   19964   19963   19965   19963   19966   19966   19967
   19966   19968   19966   19969   19969   19970   19969   19971
   19969   19972   19972   19973   19972   19974   19972   19975
   19976   19977   19976   19981   19976   19985   19976   19989
   19977   19978   19977   19979   19977   19980   19981   19982
   19981   19983   19981   19984   19985   19986   19985   19987
   19985   19988   19989   19990   19989   19991   19989   19992
   19992   19993   19992   19994   19992   19999   19995   19998
   19995   19996   19995   19997   19995   19999   19998   20000
   20000   20001   20000   20002   20000   20003   20003   20004
   20003   20011   20003   20005   20005   20006   20006   20008
   20006   20007   20008   20009   20008   20010   20008   20020
   20011   20012   20011   20013   20011   20014   20014   20015
   20015   20017   20015   20016   20017   20018   20017   20019
   20017   20057   20020   20021   20020   20022   20020   20023
   20023   20024   20023   20025   20023   20026   20026   20027
   20026   20028   20026   20029   20029   20030   20029   20031
   20029   20032   20032   20033   20032   20034   20032   20035
   20035   20036   20035   20037   20035   20038   20038   20039
   20038   20040   20038   20041   20041   20042   20041   20043
   20041   20044   20044   20045   20044   20046   20044   20047
   20047   20048   20047   20049   20047   20050   20050   20051
   20050   20052   20050   20053   20053   20054   20053   20055
   20053   20056   20057   20058   20057   20059   20057   20060
   20060   20061   20060   20062   20060   20063   20063   20064
   20063   20065   20063   20066   20066   20067   20066   20068
   20066   20069   20069   20070   20069   20071   20069   20072
   20072   20073   20072   20074   20072   20075   20075   20076
   20075   20077   20075   20078   20078   20079   20078   20080
   20078   20081   20081   20082   20081   20083   20081   20084
   20084   20085   20084   20086   20084   20087   20087   20088
   20087   20089   20087   20090   20090   20091   20090   20092
   20090   20093   20094   20095   20094   20099   20094   20103
   20094   20107   20095   20096   20095   20097   20095   20098
   20099   20100   20099   20101   20099   20102   20103   20104
   20103   20105   20103   20106   20107   20108   20107   20109
   20107   20110   20110   20111   20110   20112   20110   20117
   20113   20116   20113   20114   20113   20115   20113   20117
   20116   20118   20118   20119   20118   20120   20118   20121
   20121   20122   20121   20129   20121   20123   20123   20124
   20124   20126   20124   20125   20126   20127   20126   20128
   20126   20138   20129   20130   20129   20131   20129   20132
   20132   20133   20133   20135   20133   20134   20135   20136
   20135   20137   20135   20175   20138   20139   20138   20140
   20138   20141   20141   20142   20141   20143   20141   20144
   20144   20145   20144   20146   20144   20147   20147   20148
   20147   20149   20147   20150   20150   20151   20150   20152
   20150   20153   20153   20154   20153   20155   20153   20156
   20156   20157   20156   20158   20156   20159   20159   20160
   20159   20161   20159   20162   20162   20163   20162   20164
   20162   20165   20165   20166   20165   20167   20165   20168
   20168   20169   20168   20170   20168   20171   20171   20172
   20171   20173   20171   20174   20175   20176   20175   20177
   20175   20178   20178   20179   20178   20180   20178   20181
   20181   20182   20181   20183   20181   20184   20184   20185
   20184   20186   20184   20187   20187   20188   20187   20189
   20187   20190   20190   20191   20190   20192   20190   20193
   20193   20194   20193   20195   20193   20196   20196   20197
   20196   20198   20196   20199   20199   20200   20199   20201
   20199   20202   20202   20203   20202   20204   20202   20205
   20205   20206   20205   20207   20205   20208   20208   20209
   20208   20210   20208   20211   20212   20213   20212   20217
   20212   20221   20212   20225   20213   20214   20213   20215
   20213   20216   20217   20218   20217   20219   20217   20220
   20221   20222   20221   20223   20221   20224   20225   20226
   20225   20227   20225   20228   20228   20229   20228   20230
   20228   20235   20231   20234   20231   20232   20231   20233
   20231   20235   20234   20236   20236   20237   20236   20238
   20236   20239   20239   20240   20239   20247   20239   20241
   20241   20242   20242   20244   20242   20243   20244   20245
   20244   20246   20244   20256   20247   20248   20247   20249
   20247   20250   20250   20251   20251   20253   20251   20252
   20253   20254   20253   20255   20253   20293   20256   20257
   20256   20258   20256   20259   20259   20260   20259   20261
   20259   20262   20262   20263   20262   20264   20262   20265
   20265   20266   20265   20267   20265   20268   20268   20269
   20268   20270   20268   20271   20271   20272   20271   20273
   20271   20274   20274   20275   20274   20276   20274   20277
   20277   20278   20277   20279   20277   20280   20280   20281
   20280   20282   20280   20283   20283   20284   20283   20285
   20283   20286   20286   20287   20286   20288   20286   20289
   20289   20290   20289   20291   20289   20292   20293   20294
   20293   20295   20293   20296   20296   20297   20296   20298
   20296   20299   20299   20300   20299   20301   20299   20302
   20302   20303   20302   20304   20302   20305   20305   20306
   20305   20307   20305   20308   20308   20309   20308   20310
   20308   20311   20311   20312   20311   20313   20311   20314
   20314   20315   20314   20316   20314   20317   20317   20318
   20317   20319   20317   20320   20320   20321   20320   20322
   20320   20323   20323   20324   20323   20325   20323   20326
   20326   20327   20326   20328   20326   20329   20330   20331
   20330   20335   20330   20339   20330   20343   20331   20332
   20331   20333   20331   20334   20335   20336   20335   20337
   20335   20338   20339   20340   20339   20341   20339   20342
   20343   20344   20343   20345   20343   20346   20346   20347
   20346   20348   20346   20353   20349   20352   20349   20350
   20349   20351   20349   20353   20352   20354   20354   20355
   20354   20356   20354   20357   20357   20358   20357   20365
   20357   20359   20359   20360   20360   20362   20360   20361
   20362   20363   20362   20364   20362   20374   20365   20366
   20365   20367   20365   20368   20368   20369   20369   20371
   20369   20370   20371   20372   20371   20373   20371   20411
   20374   20375   20374   20376   20374   20377   20377   20378
   20377   20379   20377   20380   20380   20381   20380   20382
   20380   20383   20383   20384   20383   20385   20383   20386
   20386   20387   20386   20388   20386   20389   20389   20390
   20389   20391   20389   20392   20392   20393   20392   20394
   20392   20395   20395   20396   20395   20397   20395   20398
   20398   20399   20398   20400   20398   20401   20401   20402
   20401   20403   20401   20404   20404   20405   20404   20406
   20404   20407   20407   20408   20407   20409   20407   20410
   20411   20412   20411   20413   20411   20414   20414   20415
   20414   20416   20414   20417   20417   20418   20417   20419
   20417   20420   20420   20421   20420   20422   20420   20423
   20423   20424   20423   20425   20423   20426   20426   20427
   20426   20428   20426   20429   20429   20430   20429   20431
   20429   20432   20432   20433   20432   20434   20432   20435
   20435   20436   20435   20437   20435   20438   20438   20439
   20438   20440   20438   20441   20441   20442   20441   20443
   20441   20444   20444   20445   20444   20446   20444   20447
   20448   20449   20448   20453   20448   20457   20448   20461
   20449   20450   20449   20451   20449   20452   20453   20454
   20453   20455   20453   20456   20457   20458   20457   20459
   20457   20460   20461   20462   20461   20463   20461   20464
   20464   20465   20464   20466   20464   20471   20467   20470
   20467   20468   20467   20469   20467   20471   20470   20472
   20472   20473   20472   20474   20472   20475   20475   20476
   20475   20483   20475   20477   20477   20478   20478   20480
   20478   20479   20480   20481   20480   20482   20480   20492
   20483   20484   20483   20485   20483   20486   20486   20487
   20487   20489   20487   20488   20489   20490   20489   20491
   20489   20529   20492   20493   20492   20494   20492   20495
   20495   20496   20495   20497   20495   20498   20498   20499
   20498   20500   20498   20501   20501   20502   20501   20503
   20501   20504   20504   20505   20504   20506   20504   20507
   20507   20508   20507   20509   20507   20510   20510   20511
   20510   20512   20510   20513   20513   20514   20513   20515
   20513   20516   20516   20517   20516   20518   20516   20519
   20519   20520   20519   20521   20519   20522   20522   20523
   20522   20524   20522   20525   20525   20526   20525   20527
   20525   20528   20529   20530   20529   20531   20529   20532
   20532   20533   20532   20534   20532   20535   20535   20536
   20535   20537   20535   20538   20538   20539   20538   20540
   20538   20541   20541   20542   20541   20543   20541   20544
   20544   20545   20544   20546   20544   20547   20547   20548
   20547   20549   20547   20550   20550   20551   20550   20552
   20550   20553   20553   20554   20553   20555   20553   20556
   20556   20557   20556   20558   20556   20559   20559   20560
   20559   20561   20559   20562   20562   20563   20562   20564
   20562   20565   20566   20567   20566   20571   20566   20575
   20566   20579   20567   20568   20567   20569   20567   20570
   20571   20572   20571   20573   20571   20574   20575   20576
   20575   20577   20575   20578   20579   20580   20579   20581
   20579   20582   20582   20583   20582   20584   20582   20589
   20585   20588   20585   20586   20585   20587   20585   20589
   20588   20590   20590   20591   20590   20592   20590   20593
   20593   20594   20593   20601   20593   20595   20595   20596
   20596   20598   20596   20597   20598   20599   20598   20600
   20598   20610   20601   20602   20601   20603   20601   20604
   20604   20605   20605   20607   20605   20606   20607   20608
   20607   20609   20607   20647   20610   20611   20610   20612
   20610   20613   20613   20614   20613   20615   20613   20616
   20616   20617   20616   20618   20616   20619   20619   20620
   20619   20621   20619   20622   20622   20623   20622   20624
   20622   20625   20625   20626   20625   20627   20625   20628
   20628   20629   20628   20630   20628   20631   20631   20632
   20631   20633   20631   20634   20634   20635   20634   20636
   20634   20637   20637   20638   20637   20639   20637   20640
   20640   20641   20640   20642   20640   20643   20643   20644
   20643   20645   20643   20646   20647   20648   20647   20649
   20647   20650   20650   20651   20650   20652   20650   20653
   20653   20654   20653   20655   20653   20656   20656   20657
   20656   20658   20656   20659   20659   20660   20659   20661
   20659   20662   20662   20663   20662   20664   20662   20665
   20665   20666   20665   20667   20665   20668   20668   20669
   20668   20670   20668   20671   20671   20672   20671   20673
   20671   20674   20674   20675   20674   20676   20674   20677
   20677   20678   20677   20679   20677   20680   20680   20681
   20680   20682   20680   20683   20684   20685   20684   20689
   20684   20693   20684   20697   20685   20686   20685   20687
   20685   20688   20689   20690   20689   20691   20689   20692
   20693   20694   20693   20695   20693   20696   20697   20698
   20697   20699   20697   20700   20700   20701   20700   20702
   20700   20707   20703   20706   20703   20704   20703   20705
   20703   20707   20706   20708   20708   20709   20708   20710
   20708   20711   20711   20712   20711   20719   20711   20713
   20713   20714   20714   20716   20714   20715   20716   20717
   20716   20718   20716   20728   20719   20720   20719   20721
   20719   20722   20722   20723   20723   20725   20723   20724
   20725   20726   20725   20727   20725   20765   20728   20729
   20728   20730   20728   20731   20731   20732   20731   20733
   20731   20734   20734   20735   20734   20736   20734   20737
   20737   20738   20737   20739   20737   20740   20740   20741
   20740   20742   20740   20743   20743   20744   20743   20745
   20743   20746   20746   20747   20746   20748   20746   20749
   20749   20750   20749   20751   20749   20752   20752   20753
   20752   20754   20752   20755   20755   20756   20755   20757
   20755   20758   20758   20759   20758   20760   20758   20761
   20761   20762   20761   20763   20761   20764   20765   20766
   20765   20767   20765   20768   20768   20769   20768   20770
   20768   20771   20771   20772   20771   20773   20771   20774
   20774   20775   20774   20776   20774   20777   20777   20778
   20777   20779   20777   20780   20780   20781   20780   20782
   20780   20783   20783   20784   20783   20785   20783   20786
   20786   20787   20786   20788   20786   20789   20789   20790
   20789   20791   20789   20792   20792   20793   20792   20794
   20792   20795   20795   20796   20795   20797   20795   20798
   20798   20799   20798   20800   20798   20801   20802   20803
   20802   20807   20802   20811   20802   20815   20803   20804
   20803   20805   20803   20806   20807   20808   20807   20809
   20807   20810   20811   20812   20811   20813   20811   20814
   20815   20816   20815   20817   20815   20818   20818   20819
   20818   20820   20818   20825   20821   20824   20821   20822
   20821   20823   20821   20825   20824   20826   20826   20827
   20826   20828   20826   20829   20829   20830   20829   20837
   20829   20831   20831   20832   20832   20834   20832   20833
   20834   20835   20834   20836   20834   20846   20837   20838
   20837   20839   20837   20840   20840   20841   20841   20843
   20841   20842   20843   20844   20843   20845   20843   20883
   20846   20847   20846   20848   20846   20849   20849   20850
   20849   20851   20849   20852   20852   20853   20852   20854
   20852   20855   20855   20856   20855   20857   20855   20858
   20858   20859   20858   20860   20858   20861   20861   20862
   20861   20863   20861   20864   20864   20865   20864   20866
   20864   20867   20867   20868   20867   20869   20867   20870
   20870   20871   20870   20872   20870   20873   20873   20874
   20873   20875   20873   20876   20876   20877   20876   20878
   20876   20879   20879   20880   20879   20881   20879   20882
   20883   20884   20883   20885   20883   20886   20886   20887
   20886   20888   20886   20889   20889   20890   20889   20891
   20889   20892   20892   20893   20892   20894   20892   20895
   20895   20896   20895   20897   20895   20898   20898   20899
   20898   20900   20898   20901   20901   20902   20901   20903
   20901   20904   20904   20905   20904   20906   20904   20907
   20907   20908   20907   20909   20907   20910   20910   20911
   20910   20912   20910   20913   20913   20914   20913   20915
   20913   20916   20916   20917   20916   20918   20916   20919
   20920   20921   20920   20925   20920   20929   20920   20933
   20921   20922   20921   20923   20921   20924   20925   20926
   20925   20927   20925   20928   20929   20930   20929   20931
   20929   20932   20933   20934   20933   20935   20933   20936
   20936   20937   20936   20938   20936   20943   20939   20942
   20939   20940   20939   20941   20939   20943   20942   20944
   20944   20945   20944   20946   20944   20947   20947   20948
   20947   20955   20947   20949   20949   20950   20950   20952
   20950   20951   20952   20953   20952   20954   20952   20964
   20955   20956   20955   20957   20955   20958   20958   20959
   20959   20961   20959   20960   20961   20962   20961   20963
   20961   21001   20964   20965   20964   20966   20964   20967
   20967   20968   20967   20969   20967   20970   20970   20971
   20970   20972   20970   20973   20973   20974   20973   20975
   20973   20976   20976   20977   20976   20978   20976   20979
   20979   20980   20979   20981   20979   20982   20982   20983
   20982   20984   20982   20985   20985   20986   20985   20987
   20985   20988   20988   20989   20988   20990   20988   20991
   20991   20992   20991   20993   20991   20994   20994   20995
   20994   20996   20994   20997   20997   20998   20997   20999
   20997   21000   21001   21002   21001   21003   21001   21004
   21004   21005   21004   21006   21004   21007   21007   21008
   21007   21009   21007   21010   21010   21011   21010   21012
   21010   21013   21013   21014   21013   21015   21013   21016
   21016   21017   21016   21018   21016   21019   21019   21020
   21019   21021   21019   21022   21022   21023   21022   21024
   21022   21025   21025   21026   21025   21027   21025   21028
   21028   21029   21028   21030   21028   21031   21031   21032
   21031   21033   21031   21034   21034   21035   21034   21036
   21034   21037   21038   21039   21038   21043   21038   21047
   21038   21051   21039   21040   21039   21041   21039   21042
   21043   21044   21043   21045   21043   21046   21047   21048
   21047   21049   21047   21050   21051   21052   21051   21053
   21051   21054   21054   21055   21054   21056   21054   21061
   21057   21060   21057   21058   21057   21059   21057   21061
   21060   21062   21062   21063   21062   21064   21062   21065
   21065   21066   21065   21073   21065   21067   21067   21068
   21068   21070   21068   21069   21070   21071   21070   21072
   21070   21082   21073   21074   21073   21075   21073   21076
   21076   21077   21077   21079   21077   21078   21079   21080
   21079   21081   21079   21119   21082   21083   21082   21084
   21082   21085   21085   21086   21085   21087   21085   21088
   21088   21089   21088   21090   21088   21091   21091   21092
   21091   21093   21091   21094   21094   21095   21094   21096
   21094   21097   21097   21098   21097   21099   21097   21100
   21100   21101   21100   21102   21100   21103   21103   21104
   21103   21105   21103   21106   21106   21107   21106   21108
   21106   21109   21109   21110   21109   21111   21109   21112
   21112   21113   21112   21114   21112   21115   21115   21116
   21115   21117   21115   21118   21119   21120   21119   21121
   21119   21122   21122   21123   21122   21124   21122   21125
   21125   21126   21125   21127   21125   21128   21128   21129
   21128   21130   21128   21131   21131   21132   21131   21133
   21131   21134   21134   21135   21134   21136   21134   21137
   21137   21138   21137   21139   21137   21140   21140   21141
   21140   21142   21140   21143   21143   21144   21143   21145
   21143   21146   21146   21147   21146   21148   21146   21149
   21149   21150   21149   21151   21149   21152   21152   21153
   21152   21154   21152   21155   21156   21157   21156   21161
   21156   21165   21156   21169   21157   21158   21157   21159
   21157   21160   21161   21162   21161   21163   21161   21164
   21165   21166   21165   21167   21165   21168   21169   21170
   21169   21171   21169   21172   21172   21173   21172   21174
   21172   21179   21175   21178   21175   21176   21175   21177
   21175   21179   21178   21180   21180   21181   21180   21182
   21180   21183   21183   21184   21183   21191   21183   21185
   21185   21186   21186   21188   21186   21187   21188   21189
   21188   21190   21188   21200   21191   21192   21191   21193
   21191   21194   21194   21195   21195   21197   21195   21196
   21197   21198   21197   21199   21197   21237   21200   21201
   21200   21202   21200   21203   21203   21204   21203   21205
   21203   21206   21206   21207   21206   21208   21206   21209
   21209   21210   21209   21211   21209   21212   21212   21213
   21212   21214   21212   21215   21215   21216   21215   21217
   21215   21218   21218   21219   21218   21220   21218   21221
   21221   21222   21221   21223   21221   21224   21224   21225
   21224   21226   21224   21227   21227   21228   21227   21229
   21227   21230   21230   21231   21230   21232   21230   21233
   21233   21234   21233   21235   21233   21236   21237   21238
   21237   21239   21237   21240   21240   21241   21240   21242
   21240   21243   21243   21244   21243   21245   21243   21246
   21246   21247   21246   21248   21246   21249   21249   21250
   21249   21251   21249   21252   21252   21253   21252   21254
   21252   21255   21255   21256   21255   21257   21255   21258
   21258   21259   21258   21260   21258   21261   21261   21262
   21261   21263   21261   21264   21264   21265   21264   21266
   21264   21267   21267   21268   21267   21269   21267   21270
   21270   21271   21270   21272   21270   21273   21274   21275
   21274   21279   21274   21283   21274   21287   21275   21276
   21275   21277   21275   21278   21279   21280   21279   21281
   21279   21282   21283   21284   21283   21285   21283   21286
   21287   21288   21287   21289   21287   21290   21290   21291
   21290   21292   21290   21297   21293   21296   21293   21294
   21293   21295   21293   21297   21296   21298   21298   21299
   21298   21300   21298   21301   21301   21302   21301   21309
   21301   21303   21303   21304   21304   21306   21304   21305
   21306   21307   21306   21308   21306   21318   21309   21310
   21309   21311   21309   21312   21312   21313   21313   21315
   21313   21314   21315   21316   21315   21317   21315   21355
   21318   21319   21318   21320   21318   21321   21321   21322
   21321   21323   21321   21324   21324   21325   21324   21326
   21324   21327   21327   21328   21327   21329   21327   21330
   21330   21331   21330   21332   21330   21333   21333   21334
   21333   21335   21333   21336   21336   21337   21336   21338
   21336   21339   21339   21340   21339   21341   21339   21342
   21342   21343   21342   21344   21342   21345   21345   21346
   21345   21347   21345   21348   21348   21349   21348   21350
   21348   21351   21351   21352   21351   21353   21351   21354
   21355   21356   21355   21357   21355   21358   21358   21359
   21358   21360   21358   21361   21361   21362   21361   21363
   21361   21364   21364   21365   21364   21366   21364   21367
   21367   21368   21367   21369   21367   21370   21370   21371
   21370   21372   21370   21373   21373   21374   21373   21375
   21373   21376   21376   21377   21376   21378   21376   21379
   21379   21380   21379   21381   21379   21382   21382   21383
   21382   21384   21382   21385   21385   21386   21385   21387
   21385   21388   21388   21389   21388   21390   21388   21391
   21392   21393   21392   21397   21392   21401   21392   21405
   21393   21394   21393   21395   21393   21396   21397   21398
   21397   21399   21397   21400   21401   21402   21401   21403
   21401   21404   21405   21406   21405   21407   21405   21408
   21408   21409   21408   21410   21408   21415   21411   21414
   21411   21412   21411   21413   21411   21415   21414   21416
   21416   21417   21416   21418   21416   21419   21419   21420
   21419   21427   21419   21421   21421   21422   21422   21424
   21422   21423   21424   21425   21424   21426   21424   21436
   21427   21428   21427   21429   21427   21430   21430   21431
   21431   21433   21431   21432   21433   21434   21433   21435
   21433   21473   21436   21437   21436   21438   21436   21439
   21439   21440   21439   21441   21439   21442   21442   21443
   21442   21444   21442   21445   21445   21446   21445   21447
   21445   21448   21448   21449   21448   21450   21448   21451
   21451   21452   21451   21453   21451   21454   21454   21455
   21454   21456   21454   21457   21457   21458   21457   21459
   21457   21460   21460   21461   21460   21462   21460   21463
   21463   21464   21463   21465   21463   21466   21466   21467
   21466   21468   21466   21469   21469   21470   21469   21471
   21469   21472   21473   21474   21473   21475   21473   21476
   21476   21477   21476   21478   21476   21479   21479   21480
   21479   21481   21479   21482   21482   21483   21482   21484
   21482   21485   21485   21486   21485   21487   21485   21488
   21488   21489   21488   21490   21488   21491   21491   21492
   21491   21493   21491   21494   21494   21495   21494   21496
   21494   21497   21497   21498   21497   21499   21497   21500
   21500   21501   21500   21502   21500   21503   21503   21504
   21503   21505   21503   21506   21506   21507   21506   21508
   21506   21509   21510   21511   21510   21515   21510   21519
   21510   21523   21511   21512   21511   21513   21511   21514
   21515   21516   21515   21517   21515   21518   21519   21520
   21519   21521   21519   21522   21523   21524   21523   21525
   21523   21526   21526   21527   21526   21528   21526   21533
   21529   21532   21529   21530   21529   21531   21529   21533
   21532   21534   21534   21535   21534   21536   21534   21537
   21537   21538   21537   21545   21537   21539   21539   21540
   21540   21542   21540   21541   21542   21543   21542   21544
   21542   21554   21545   21546   21545   21547   21545   21548
   21548   21549   21549   21551   21549   21550   21551   21552
   21551   21553   21551   21591   21554   21555   21554   21556
   21554   21557   21557   21558   21557   21559   21557   21560
   21560   21561   21560   21562   21560   21563   21563   21564
   21563   21565   21563   21566   21566   21567   21566   21568
   21566   21569   21569   21570   21569   21571   21569   21572
   21572   21573   21572   21574   21572   21575   21575   21576
   21575   21577   21575   21578   21578   21579   21578   21580
   21578   21581   21581   21582   21581   21583   21581   21584
   21584   21585   21584   21586   21584   21587   21587   21588
   21587   21589   21587   21590   21591   21592   21591   21593
   21591   21594   21594   21595   21594   21596   21594   21597
   21597   21598   21597   21599   21597   21600   21600   21601
   21600   21602   21600   21603   21603   21604   21603   21605
   21603   21606   21606   21607   21606   21608   21606   21609
   21609   21610   21609   21611   21609   21612   21612   21613
   21612   21614   21612   21615   21615   21616   21615   21617
   21615   21618   21618   21619   21618   21620   21618   21621
   21621   21622   21621   21623   21621   21624   21624   21625
   21624   21626   21624   21627   21628   21629   21628   21633
   21628   21637   21628   21641   21629   21630   21629   21631
   21629   21632   21633   21634   21633   21635   21633   21636
   21637   21638   21637   21639   21637   21640   21641   21642
   21641   21643   21641   21644   21644   21645   21644   21646
   21644   21651   21647   21650   21647   21648   21647   21649
   21647   21651   21650   21652   21652   21653   21652   21654
   21652   21655   21655   21656   21655   21663   21655   21657
   21657   21658   21658   21660   21658   21659   21660   21661
   21660   21662   21660   21672   21663   21664   21663   21665
   21663   21666   21666   21667   21667   21669   21667   21668
   21669   21670   21669   21671   21669   21709   21672   21673
   21672   21674   21672   21675   21675   21676   21675   21677
   21675   21678   21678   21679   21678   21680   21678   21681
   21681   21682   21681   21683   21681   21684   21684   21685
   21684   21686   21684   21687   21687   21688   21687   21689
   21687   21690   21690   21691   21690   21692   21690   21693
   21693   21694   21693   21695   21693   21696   21696   21697
   21696   21698   21696   21699   21699   21700   21699   21701
   21699   21702   21702   21703   21702   21704   21702   21705
   21705   21706   21705   21707   21705   21708   21709   21710
   21709   21711   21709   21712   21712   21713   21712   21714
   21712   21715   21715   21716   21715   21717   21715   21718
   21718   21719   21718   21720   21718   21721   21721   21722
   21721   21723   21721   21724   21724   21725   21724   21726
   21724   21727   21727   21728   21727   21729   21727   21730
   21730   21731   21730   21732   21730   21733   21733   21734
   21733   21735   21733   21736   21736   21737   21736   21738
   21736   21739   21739   21740   21739   21741   21739   21742
   21742   21743   21742   21744   21742   21745   21746   21747
   21746   21751   21746   21755   21746   21759   21747   21748
   21747   21749   21747   21750   21751   21752   21751   21753
   21751   21754   21755   21756   21755   21757   21755   21758
   21759   21760   21759   21761   21759   21762   21762   21763
   21762   21764   21762   21769   21765   21768   21765   21766
   21765   21767   21765   21769   21768   21770   21770   21771
   21770   21772   21770   21773   21773   21774   21773   21781
   21773   21775   21775   21776   21776   21778   21776   21777
   21778   21779   21778   21780   21778   21790   21781   21782
   21781   21783   21781   21784   21784   21785   21785   21787
   21785   21786   21787   21788   21787   21789   21787   21827
   21790   21791   21790   21792   21790   21793   21793   21794
   21793   21795   21793   21796   21796   21797   21796   21798
   21796   21799   21799   21800   21799   21801   21799   21802
   21802   21803   21802   21804   21802   21805   21805   21806
   21805   21807   21805   21808   21808   21809   21808   21810
   21808   21811   21811   21812   21811   21813   21811   21814
   21814   21815   21814   21816   21814   21817   21817   21818
   21817   21819   21817   21820   21820   21821   21820   21822
   21820   21823   21823   21824   21823   21825   21823   21826
   21827   21828   21827   21829   21827   21830   21830   21831
   21830   21832   21830   21833   21833   21834   21833   21835
   21833   21836   21836   21837   21836   21838   21836   21839
   21839   21840   21839   21841   21839   21842   21842   21843
   21842   21844   21842   21845   21845   21846   21845   21847
   21845   21848   21848   21849   21848   21850   21848   21851
   21851   21852   21851   21853   21851   21854   21854   21855
   21854   21856   21854   21857   21857   21858   21857   21859
   21857   21860   21860   21861   21860   21862   21860   21863
   21864   21865   21864   21869   21864   21873   21864   21877
   21865   21866   21865   21867   21865   21868   21869   21870
   21869   21871   21869   21872   21873   21874   21873   21875
   21873   21876   21877   21878   21877   21879   21877   21880
   21880   21881   21880   21882   21880   21887   21883   21886
   21883   21884   21883   21885   21883   21887   21886   21888
   21888   21889   21888   21890   21888   21891   21891   21892
   21891   21899   21891   21893   21893   21894   21894   21896
   21894   21895   21896   21897   21896   21898   21896   21908
   21899   21900   21899   21901   21899   21902   21902   21903
   21903   21905   21903   21904   21905   21906   21905   21907
   21905   21945   21908   21909   21908   21910   21908   21911
   21911   21912   21911   21913   21911   21914   21914   21915
   21914   21916   21914   21917   21917   21918   21917   21919
   21917   21920   21920   21921   21920   21922   21920   21923
   21923   21924   21923   21925   21923   21926   21926   21927
   21926   21928   21926   21929   21929   21930   21929   21931
   21929   21932   21932   21933   21932   21934   21932   21935
   21935   21936   21935   21937   21935   21938   21938   21939
   21938   21940   21938   21941   21941   21942   21941   21943
   21941   21944   21945   21946   21945   21947   21945   21948
   21948   21949   21948   21950   21948   21951   21951   21952
   21951   21953   21951   21954   21954   21955   21954   21956
   21954   21957   21957   21958   21957   21959   21957   21960
   21960   21961   21960   21962   21960   21963   21963   21964
   21963   21965   21963   21966   21966   21967   21966   21968
   21966   21969   21969   21970   21969   21971   21969   21972
   21972   21973   21972   21974   21972   21975   21975   21976
   21975   21977   21975   21978   21978   21979   21978   21980
   21978   21981   21982   21983   21982   21987   21982   21991
   21982   21995   21983   21984   21983   21985   21983   21986
   21987   21988   21987   21989   21987   21990   21991   21992
   21991   21993   21991   21994   21995   21996   21995   21997
   21995   21998   21998   21999   21998   22000   21998   22005
   22001   22004   22001   22002   22001   22003   22001   22005
   22004   22006   22006   22007   22006   22008   22006   22009
   22009   22010   22009   22017   22009   22011   22011   22012
   22012   22014   22012   22013   22014   22015   22014   22016
   22014   22026   22017   22018   22017   22019   22017   22020
   22020   22021   22021   22023   22021   22022   22023   22024
   22023   22025   22023   22063   22026   22027   22026   22028
   22026   22029   22029   22030   22029   22031   22029   22032
   22032   22033   22032   22034   22032   22035   22035   22036
   22035   22037   22035   22038   22038   22039   22038   22040
   22038   22041   22041   22042   22041   22043   22041   22044
   22044   22045   22044   22046   22044   22047   22047   22048
   22047   22049   22047   22050   22050   22051   22050   22052
   22050   22053   22053   22054   22053   22055   22053   22056
   22056   22057   22056   22058   22056   22059   22059   22060
   22059   22061   22059   22062   22063   22064   22063   22065
   22063   22066   22066   22067   22066   22068   22066   22069
   22069   22070   22069   22071   22069   22072   22072   22073
   22072   22074   22072   22075   22075   22076   22075   22077
   22075   22078   22078   22079   22078   22080   22078   22081
   22081   22082   22081   22083   22081   22084   22084   22085
   22084   22086   22084   22087   22087   22088   22087   22089
   22087   22090   22090   22091   22090   22092   22090   22093
   22093   22094   22093   22095   22093   22096   22096   22097
   22096   22098   22096   22099   22100   22101   22100   22105
   22100   22109   22100   22113   22101   22102   22101   22103
   22101   22104   22105   22106   22105   22107   22105   22108
   22109   22110   22109   22111   22109   22112   22113   22114
   22113   22115   22113   22116   22116   22117   22116   22118
   22116   22123   22119   22122   22119   22120   22119   22121
   22119   22123   22122   22124   22124   22125   22124   22126
   22124   22127   22127   22128   22127   22135   22127   22129
   22129   22130   22130   22132   22130   22131   22132   22133
   22132   22134   22132   22144   22135   22136   22135   22137
   22135   22138   22138   22139   22139   22141   22139   22140
   22141   22142   22141   22143   22141   22181   22144   22145
   22144   22146   22144   22147   22147   22148   22147   22149
   22147   22150   22150   22151   22150   22152   22150   22153
   22153   22154   22153   22155   22153   22156   22156   22157
   22156   22158   22156   22159   22159   22160   22159   22161
   22159   22162   22162   22163   22162   22164   22162   22165
   22165   22166   22165   22167   22165   22168   22168   22169
   22168   22170   22168   22171   22171   22172   22171   22173
   22171   22174   22174   22175   22174   22176   22174   22177
   22177   22178   22177   22179   22177   22180   22181   22182
   22181   22183   22181   22184   22184   22185   22184   22186
   22184   22187   22187   22188   22187   22189   22187   22190
   22190   22191   22190   22192   22190   22193   22193   22194
   22193   22195   22193   22196   22196   22197   22196   22198
   22196   22199   22199   22200   22199   22201   22199   22202
   22202   22203   22202   22204   22202   22205   22205   22206
   22205   22207   22205   22208   22208   22209   22208   22210
   22208   22211   22211   22212   22211   22213   22211   22214
   22214   22215   22214   22216   22214   22217   22218   22219
   22218   22223   22218   22227   22218   22231   22219   22220
   22219   22221   22219   22222   22223   22224   22223   22225
   22223   22226   22227   22228   22227   22229   22227   22230
   22231   22232   22231   22233   22231   22234   22234   22235
   22234   22236   22234   22241   22237   22240   22237   22238
   22237   22239   22237   22241   22240   22242   22242   22243
   22242   22244   22242   22245   22245   22246   22245   22253
   22245   22247   22247   22248   22248   22250   22248   22249
   22250   22251   22250   22252   22250   22262   22253   22254
   22253   22255   22253   22256   22256   22257   22257   22259
   22257   22258   22259   22260   22259   22261   22259   22299
   22262   22263   22262   22264   22262   22265   22265   22266
   22265   22267   22265   22268   22268   22269   22268   22270
   22268   22271   22271   22272   22271   22273   22271   22274
   22274   22275   22274   22276   22274   22277   22277   22278
   22277   22279   22277   22280   22280   22281   22280   22282
   22280   22283   22283   22284   22283   22285   22283   22286
   22286   22287   22286   22288   22286   22289   22289   22290
   22289   22291   22289   22292   22292   22293   22292   22294
   22292   22295   22295   22296   22295   22297   22295   22298
   22299   22300   22299   22301   22299   22302   22302   22303
   22302   22304   22302   22305   22305   22306   22305   22307
   22305   22308   22308   22309   22308   22310   22308   22311
   22311   22312   22311   22313   22311   22314   22314   22315
   22314   22316   22314   22317   22317   22318   22317   22319
   22317   22320   22320   22321   22320   22322   22320   22323
   22323   22324   22323   22325   22323   22326   22326   22327
   22326   22328   22326   22329   22329   22330   22329   22331
   22329   22332   22332   22333   22332   22334   22332   22335
   22336   22337   22336   22341   22336   22345   22336   22349
   22337   22338   22337   22339   22337   22340   22341   22342
   22341   22343   22341   22344   22345   22346   22345   22347
   22345   22348   22349   22350   22349   22351   22349   22352
   22352   22353   22352   22354   22352   22359   22355   22358
   22355   22356   22355   22357   22355   22359   22358   22360
   22360   22361   22360   22362   22360   22363   22363   22364
   22363   22371   22363   22365   22365   22366   22366   22368
   22366   22367   22368   22369   22368   22370   22368   22380
   22371   22372   22371   22373   22371   22374   22374   22375
   22375   22377   22375   22376   22377   22378   22377   22379
   22377   22417   22380   22381   22380   22382   22380   22383
   22383   22384   22383   22385   22383   22386   22386   22387
   22386   22388   22386   22389   22389   22390   22389   22391
   22389   22392   22392   22393   22392   22394   22392   22395
   22395   22396   22395   22397   22395   22398   22398   22399
   22398   22400   22398   22401   22401   22402   22401   22403
   22401   22404   22404   22405   22404   22406   22404   22407
   22407   22408   22407   22409   22407   22410   22410   22411
   22410   22412   22410   22413   22413   22414   22413   22415
   22413   22416   22417   22418   22417   22419   22417   22420
   22420   22421   22420   22422   22420   22423   22423   22424
   22423   22425   22423   22426   22426   22427   22426   22428
   22426   22429   22429   22430   22429   22431   22429   22432
   22432   22433   22432   22434   22432   22435   22435   22436
   22435   22437   22435   22438   22438   22439   22438   22440
   22438   22441   22441   22442   22441   22443   22441   22444
   22444   22445   22444   22446   22444   22447   22447   22448
   22447   22449   22447   22450   22450   22451   22450   22452
   22450   22453   22454   22455   22454   22459   22454   22463
   22454   22467   22455   22456   22455   22457   22455   22458
   22459   22460   22459   22461   22459   22462   22463   22464
   22463   22465   22463   22466   22467   22468   22467   22469
   22467   22470   22470   22471   22470   22472   22470   22477
   22473   22476   22473   22474   22473   22475   22473   22477
   22476   22478   22478   22479   22478   22480   22478   22481
   22481   22482   22481   22489   22481   22483   22483   22484
   22484   22486   22484   22485   22486   22487   22486   22488
   22486   22498   22489   22490   22489   22491   22489   22492
   22492   22493   22493   22495   22493   22494   22495   22496
   22495   22497   22495   22535   22498   22499   22498   22500
   22498   22501   22501   22502   22501   22503   22501   22504
   22504   22505   22504   22506   22504   22507   22507   22508
   22507   22509   22507   22510   22510   22511   22510   22512
   22510   22513   22513   22514   22513   22515   22513   22516
   22516   22517   22516   22518   22516   22519   22519   22520
   22519   22521   22519   22522   22522   22523   22522   22524
   22522   22525   22525   22526   22525   22527   22525   22528
   22528   22529   22528   22530   22528   22531   22531   22532
   22531   22533   22531   22534   22535   22536   22535   22537
   22535   22538   22538   22539   22538   22540   22538   22541
   22541   22542   22541   22543   22541   22544   22544   22545
   22544   22546   22544   22547   22547   22548   22547   22549
   22547   22550   22550   22551   22550   22552   22550   22553
   22553   22554   22553   22555   22553   22556   22556   22557
   22556   22558   22556   22559   22559   22560   22559   22561
   22559   22562   22562   22563   22562   22564   22562   22565
   22565   22566   22565   22567   22565   22568   22568   22569
   22568   22570   22568   22571   22572   22573   22572   22577
   22572   22581   22572   22585   22573   22574   22573   22575
   22573   22576   22577   22578   22577   22579   22577   22580
   22581   22582   22581   22583   22581   22584   22585   22586
   22585   22587   22585   22588   22588   22589   22588   22590
   22588   22595   22591   22594   22591   22592   22591   22593
   22591   22595   22594   22596   22596   22597   22596   22598
   22596   22599   22599   22600   22599   22607   22599   22601
   22601   22602   22602   22604   22602   22603   22604   22605
   22604   22606   22604   22616   22607   22608   22607   22609
   22607   22610   22610   22611   22611   22613   22611   22612
   22613   22614   22613   22615   22613   22653   22616   22617
   22616   22618   22616   22619   22619   22620   22619   22621
   22619   22622   22622   22623   22622   22624   22622   22625
   22625   22626   22625   22627   22625   22628   22628   22629
   22628   22630   22628   22631   22631   22632   22631   22633
   22631   22634   22634   22635   22634   22636   22634   22637
   22637   22638   22637   22639   22637   22640   22640   22641
   22640   22642   22640   22643   22643   22644   22643   22645
   22643   22646   22646   22647   22646   22648   22646   22649
   22649   22650   22649   22651   22649   22652   22653   22654
   22653   22655   22653   22656   22656   22657   22656   22658
   22656   22659   22659   22660   22659   22661   22659   22662
   22662   22663   22662   22664   22662   22665   22665   22666
   22665   22667   22665   22668   22668   22669   22668   22670
   22668   22671   22671   22672   22671   22673   22671   22674
   22674   22675   22674   22676   22674   22677   22677   22678
   22677   22679   22677   22680   22680   22681   22680   22682
   22680   22683   22683   22684   22683   22685   22683   22686
   22686   22687   22686   22688   22686   22689   22690   22691
   22690   22695   22690   22699   22690   22703   22691   22692
   22691   22693   22691   22694   22695   22696   22695   22697
   22695   22698   22699   22700   22699   22701   22699   22702
   22703   22704   22703   22705   22703   22706   22706   22707
   22706   22708   22706   22713   22709   22712   22709   22710
   22709   22711   22709   22713   22712   22714   22714   22715
   22714   22716   22714   22717   22717   22718   22717   22725
   22717   22719   22719   22720   22720   22722   22720   22721
   22722   22723   22722   22724   22722   22734   22725   22726
   22725   22727   22725   22728   22728   22729   22729   22731
   22729   22730   22731   22732   22731   22733   22731   22771
   22734   22735   22734   22736   22734   22737   22737   22738
   22737   22739   22737   22740   22740   22741   22740   22742
   22740   22743   22743   22744   22743   22745   22743   22746
   22746   22747   22746   22748   22746   22749   22749   22750
   22749   22751   22749   22752   22752   22753   22752   22754
   22752   22755   22755   22756   22755   22757   22755   22758
   22758   22759   22758   22760   22758   22761   22761   22762
   22761   22763   22761   22764   22764   22765   22764   22766
   22764   22767   22767   22768   22767   22769   22767   22770
   22771   22772   22771   22773   22771   22774   22774   22775
   22774   22776   22774   22777   22777   22778   22777   22779
   22777   22780   22780   22781   22780   22782   22780   22783
   22783   22784   22783   22785   22783   22786   22786   22787
   22786   22788   22786   22789   22789   22790   22789   22791
   22789   22792   22792   22793   22792   22794   22792   22795
   22795   22796   22795   22797   22795   22798   22798   22799
   22798   22800   22798   22801   22801   22802   22801   22803
   22801   22804   22804   22805   22804   22806   22804   22807
   22808   22809   22808   22813   22808   22817   22808   22821
   22809   22810   22809   22811   22809   22812   22813   22814
   22813   22815   22813   22816   22817   22818   22817   22819
   22817   22820   22821   22822   22821   22823   22821   22824
   22824   22825   22824   22826   22824   22831   22827   22830
   22827   22828   22827   22829   22827   22831   22830   22832
   22832   22833   22832   22834   22832   22835   22835   22836
   22835   22843   22835   22837   22837   22838   22838   22840
   22838   22839   22840   22841   22840   22842   22840   22852
   22843   22844   22843   22845   22843   22846   22846   22847
   22847   22849   22847   22848   22849   22850   22849   22851
   22849   22889   22852   22853   22852   22854   22852   22855
   22855   22856   22855   22857   22855   22858   22858   22859
   22858   22860   22858   22861   22861   22862   22861   22863
   22861   22864   22864   22865   22864   22866   22864   22867
   22867   22868   22867   22869   22867   22870   22870   22871
   22870   22872   22870   22873   22873   22874   22873   22875
   22873   22876   22876   22877   22876   22878   22876   22879
   22879   22880   22879   22881   22879   22882   22882   22883
   22882   22884   22882   22885   22885   22886   22885   22887
   22885   22888   22889   22890   22889   22891   22889   22892
   22892   22893   22892   22894   22892   22895   22895   22896
   22895   22897   22895   22898   22898   22899   22898   22900
   22898   22901   22901   22902   22901   22903   22901   22904
   22904   22905   22904   22906   22904   22907   22907   22908
   22907   22909   22907   22910   22910   22911   22910   22912
   22910   22913   22913   22914   22913   22915   22913   22916
   22916   22917   22916   22918   22916   22919   22919   22920
   22919   22921   22919   22922   22922   22923   22922   22924
   22922   22925   22926   22927   22926   22931   22926   22935
   22926   22939   22927   22928   22927   22929   22927   22930
   22931   22932   22931   22933   22931   22934   22935   22936
   22935   22937   22935   22938   22939   22940   22939   22941
   22939   22942   22942   22943   22942   22944   22942   22949
   22945   22948   22945   22946   22945   22947   22945   22949
   22948   22950   22950   22951   22950   22952   22950   22953
   22953   22954   22953   22961   22953   22955   22955   22956
   22956   22958   22956   22957   22958   22959   22958   22960
   22958   22970   22961   22962   22961   22963   22961   22964
   22964   22965   22965   22967   22965   22966   22967   22968
   22967   22969   22967   23007   22970   22971   22970   22972
   22970   22973   22973   22974   22973   22975   22973   22976
   22976   22977   22976   22978   22976   22979   22979   22980
   22979   22981   22979   22982   22982   22983   22982   22984
   22982   22985   22985   22986   22985   22987   22985   22988
   22988   22989   22988   22990   22988   22991   22991   22992
   22991   22993   22991   22994   22994   22995   22994   22996
   22994   22997   22997   22998   22997   22999   22997   23000
   23000   23001   23000   23002   23000   23003   23003   23004
   23003   23005   23003   23006   23007   23008   23007   23009
   23007   23010   23010   23011   23010   23012   23010   23013
   23013   23014   23013   23015   23013   23016   23016   23017
   23016   23018   23016   23019   23019   23020   23019   23021
   23019   23022   23022   23023   23022   23024   23022   23025
   23025   23026   23025   23027   23025   23028   23028   23029
   23028   23030   23028   23031   23031   23032   23031   23033
   23031   23034   23034   23035   23034   23036   23034   23037
   23037   23038   23037   23039   23037   23040   23040   23041
   23040   23042   23040   23043   23044   23045   23044   23049
   23044   23053   23044   23057   23045   23046   23045   23047
   23045   23048   23049   23050   23049   23051   23049   23052
   23053   23054   23053   23055   23053   23056   23057   23058
   23057   23059   23057   23060   23060   23061   23060   23062
   23060   23067   23063   23066   23063   23064   23063   23065
   23063   23067   23066   23068   23068   23069   23068   23070
   23068   23071   23071   23072   23071   23079   23071   23073
   23073   23074   23074   23076   23074   23075   23076   23077
   23076   23078   23076   23088   23079   23080   23079   23081
   23079   23082   23082   23083   23083   23085   23083   23084
   23085   23086   23085   23087   23085   23125   23088   23089
   23088   23090   23088   23091   23091   23092   23091   23093
   23091   23094   23094   23095   23094   23096   23094   23097
   23097   23098   23097   23099   23097   23100   23100   23101
   23100   23102   23100   23103   23103   23104   23103   23105
   23103   23106   23106   23107   23106   23108   23106   23109
   23109   23110   23109   23111   23109   23112   23112   23113
   23112   23114   23112   23115   23115   23116   23115   23117
   23115   23118   23118   23119   23118   23120   23118   23121
   23121   23122   23121   23123   23121   23124   23125   23126
   23125   23127   23125   23128   23128   23129   23128   23130
   23128   23131   23131   23132   23131   23133   23131   23134
   23134   23135   23134   23136   23134   23137   23137   23138
   23137   23139   23137   23140   23140   23141   23140   23142
   23140   23143   23143   23144   23143   23145   23143   23146
   23146   23147   23146   23148   23146   23149   23149   23150
   23149   23151   23149   23152   23152   23153   23152   23154
   23152   23155   23155   23156   23155   23157   23155   23158
   23158   23159   23158   23160   23158   23161   23162   23163
   23162   23167   23162   23171   23162   23175   23163   23164
   23163   23165   23163   23166   23167   23168   23167   23169
   23167   23170   23171   23172   23171   23173   23171   23174
   23175   23176   23175   23177   23175   23178   23178   23179
   23178   23180   23178   23185   23181   23184   23181   23182
   23181   23183   23181   23185   23184   23186   23186   23187
   23186   23188   23186   23189   23189   23190   23189   23197
   23189   23191   23191   23192   23192   23194   23192   23193
   23194   23195   23194   23196   23194   23206   23197   23198
   23197   23199   23197   23200   23200   23201   23201   23203
   23201   23202   23203   23204   23203   23205   23203   23243
   23206   23207   23206   23208   23206   23209   23209   23210
   23209   23211   23209   23212   23212   23213   23212   23214
   23212   23215   23215   23216   23215   23217   23215   23218
   23218   23219   23218   23220   23218   23221   23221   23222
   23221   23223   23221   23224   23224   23225   23224   23226
   23224   23227   23227   23228   23227   23229   23227   23230
   23230   23231   23230   23232   23230   23233   23233   23234
   23233   23235   23233   23236   23236   23237   23236   23238
   23236   23239   23239   23240   23239   23241   23239   23242
   23243   23244   23243   23245   23243   23246   23246   23247
   23246   23248   23246   23249   23249   23250   23249   23251
   23249   23252   23252   23253   23252   23254   23252   23255
   23255   23256   23255   23257   23255   23258   23258   23259
   23258   23260   23258   23261   23261   23262   23261   23263
   23261   23264   23264   23265   23264   23266   23264   23267
   23267   23268   23267   23269   23267   23270   23270   23271
   23270   23272   23270   23273   23273   23274   23273   23275
   23273   23276   23276   23277   23276   23278   23276   23279
   23280   23281   23280   23285   23280   23289   23280   23293
   23281   23282   23281   23283   23281   23284   23285   23286
   23285   23287   23285   23288   23289   23290   23289   23291
   23289   23292   23293   23294   23293   23295   23293   23296
   23296   23297   23296   23298   23296   23303   23299   23302
   23299   23300   23299   23301   23299   23303   23302   23304
   23304   23305   23304   23306   23304   23307   23307   23308
   23307   23315   23307   23309   23309   23310   23310   23312
   23310   23311   23312   23313   23312   23314   23312   23324
   23315   23316   23315   23317   23315   23318   23318   23319
   23319   23321   23319   23320   23321   23322   23321   23323
   23321   23361   23324   23325   23324   23326   23324   23327
   23327   23328   23327   23329   23327   23330   23330   23331
   23330   23332   23330   23333   23333   23334   23333   23335
   23333   23336   23336   23337   23336   23338   23336   23339
   23339   23340   23339   23341   23339   23342   23342   23343
   23342   23344   23342   23345   23345   23346   23345   23347
   23345   23348   23348   23349   23348   23350   23348   23351
   23351   23352   23351   23353   23351   23354   23354   23355
   23354   23356   23354   23357   23357   23358   23357   23359
   23357   23360   23361   23362   23361   23363   23361   23364
   23364   23365   23364   23366   23364   23367   23367   23368
   23367   23369   23367   23370   23370   23371   23370   23372
   23370   23373   23373   23374   23373   23375   23373   23376
   23376   23377   23376   23378   23376   23379   23379   23380
   23379   23381   23379   23382   23382   23383   23382   23384
   23382   23385   23385   23386   23385   23387   23385   23388
   23388   23389   23388   23390   23388   23391   23391   23392
   23391   23393   23391   23394   23394   23395   23394   23396
   23394   23397   23398   23399   23398   23403   23398   23407
   23398   23411   23399   23400   23399   23401   23399   23402
   23403   23404   23403   23405   23403   23406   23407   23408
   23407   23409   23407   23410   23411   23412   23411   23413
   23411   23414   23414   23415   23414   23416   23414   23421
   23417   23420   23417   23418   23417   23419   23417   23421
   23420   23422   23422   23423   23422   23424   23422   23425
   23425   23426   23425   23433   23425   23427   23427   23428
   23428   23430   23428   23429   23430   23431   23430   23432
   23430   23442   23433   23434   23433   23435   23433   23436
   23436   23437   23437   23439   23437   23438   23439   23440
   23439   23441   23439   23479   23442   23443   23442   23444
   23442   23445   23445   23446   23445   23447   23445   23448
   23448   23449   23448   23450   23448   23451   23451   23452
   23451   23453   23451   23454   23454   23455   23454   23456
   23454   23457   23457   23458   23457   23459   23457   23460
   23460   23461   23460   23462   23460   23463   23463   23464
   23463   23465   23463   23466   23466   23467   23466   23468
   23466   23469   23469   23470   23469   23471   23469   23472
   23472   23473   23472   23474   23472   23475   23475   23476
   23475   23477   23475   23478   23479   23480   23479   23481
   23479   23482   23482   23483   23482   23484   23482   23485
   23485   23486   23485   23487   23485   23488   23488   23489
   23488   23490   23488   23491   23491   23492   23491   23493
   23491   23494   23494   23495   23494   23496   23494   23497
   23497   23498   23497   23499   23497   23500   23500   23501
   23500   23502   23500   23503   23503   23504   23503   23505
   23503   23506   23506   23507   23506   23508   23506   23509
   23509   23510   23509   23511   23509   23512   23512   23513
   23512   23514   23512   23515   23516   23517   23516   23521
   23516   23525   23516   23529   23517   23518   23517   23519
   23517   23520   23521   23522   23521   23523   23521   23524
   23525   23526   23525   23527   23525   23528   23529   23530
   23529   23531   23529   23532   23532   23533   23532   23534
   23532   23539   23535   23538   23535   23536   23535   23537
   23535   23539   23538   23540   23540   23541   23540   23542
   23540   23543   23543   23544   23543   23551   23543   23545
   23545   23546   23546   23548   23546   23547   23548   23549
   23548   23550   23548   23560   23551   23552   23551   23553
   23551   23554   23554   23555   23555   23557   23555   23556
   23557   23558   23557   23559   23557   23597   23560   23561
   23560   23562   23560   23563   23563   23564   23563   23565
   23563   23566   23566   23567   23566   23568   23566   23569
   23569   23570   23569   23571   23569   23572   23572   23573
   23572   23574   23572   23575   23575   23576   23575   23577
   23575   23578   23578   23579   23578   23580   23578   23581
   23581   23582   23581   23583   23581   23584   23584   23585
   23584   23586   23584   23587   23587   23588   23587   23589
   23587   23590   23590   23591   23590   23592   23590   23593
   23593   23594   23593   23595   23593   23596   23597   23598
   23597   23599   23597   23600   23600   23601   23600   23602
   23600   23603   23603   23604   23603   23605   23603   23606
   23606   23607   23606   23608   23606   23609   23609   23610
   23609   23611   23609   23612   23612   23613   23612   23614
   23612   23615   23615   23616   23615   23617   23615   23618
   23618   23619   23618   23620   23618   23621   23621   23622
   23621   23623   23621   23624   23624   23625   23624   23626
   23624   23627   23627   23628   23627   23629   23627   23630
   23630   23631   23630   23632   23630   23633   23634   23635
   23634   23639   23634   23643   23634   23647   23635   23636
   23635   23637   23635   23638   23639   23640   23639   23641
   23639   23642   23643   23644   23643   23645   23643   23646
   23647   23648   23647   23649   23647   23650   23650   23651
   23650   23652   23650   23657   23653   23656   23653   23654
   23653   23655   23653   23657   23656   23658   23658   23659
   23658   23660   23658   23661   23661   23662   23661   23669
   23661   23663   23663   23664   23664   23666   23664   23665
   23666   23667   23666   23668   23666   23678   23669   23670
   23669   23671   23669   23672   23672   23673   23673   23675
   23673   23674   23675   23676   23675   23677   23675   23715
   23678   23679   23678   23680   23678   23681   23681   23682
   23681   23683   23681   23684   23684   23685   23684   23686
   23684   23687   23687   23688   23687   23689   23687   23690
   23690   23691   23690   23692   23690   23693   23693   23694
   23693   23695   23693   23696   23696   23697   23696   23698
   23696   23699   23699   23700   23699   23701   23699   23702
   23702   23703   23702   23704   23702   23705   23705   23706
   23705   23707   23705   23708   23708   23709   23708   23710
   23708   23711   23711   23712   23711   23713   23711   23714
   23715   23716   23715   23717   23715   23718   23718   23719
   23718   23720   23718   23721   23721   23722   23721   23723
   23721   23724   23724   23725   23724   23726   23724   23727
   23727   23728   23727   23729   23727   23730   23730   23731
   23730   23732   23730   23733   23733   23734   23733   23735
   23733   23736   23736   23737   23736   23738   23736   23739
   23739   23740   23739   23741   23739   23742   23742   23743
   23742   23744   23742   23745   23745   23746   23745   23747
   23745   23748   23748   23749   23748   23750   23748   23751
   23752   23753   23752   23757   23752   23761   23752   23765
   23753   23754   23753   23755   23753   23756   23757   23758
   23757   23759   23757   23760   23761   23762   23761   23763
   23761   23764   23765   23766   23765   23767   23765   23768
   23768   23769   23768   23770   23768   23775   23771   23774
   23771   23772   23771   23773   23771   23775   23774   23776
   23776   23777   23776   23778   23776   23779   23779   23780
   23779   23787   23779   23781   23781   23782   23782   23784
   23782   23783   23784   23785   23784   23786   23784   23796
   23787   23788   23787   23789   23787   23790   23790   23791
   23791   23793   23791   23792   23793   23794   23793   23795
   23793   23833   23796   23797   23796   23798   23796   23799
   23799   23800   23799   23801   23799   23802   23802   23803
   23802   23804   23802   23805   23805   23806   23805   23807
   23805   23808   23808   23809   23808   23810   23808   23811
   23811   23812   23811   23813   23811   23814   23814   23815
   23814   23816   23814   23817   23817   23818   23817   23819
   23817   23820   23820   23821   23820   23822   23820   23823
   23823   23824   23823   23825   23823   23826   23826   23827
   23826   23828   23826   23829   23829   23830   23829   23831
   23829   23832   23833   23834   23833   23835   23833   23836
   23836   23837   23836   23838   23836   23839   23839   23840
   23839   23841   23839   23842   23842   23843   23842   23844
   23842   23845   23845   23846   23845   23847   23845   23848
   23848   23849   23848   23850   23848   23851   23851   23852
   23851   23853   23851   23854   23854   23855   23854   23856
   23854   23857   23857   23858   23857   23859   23857   23860
   23860   23861   23860   23862   23860   23863   23863   23864
   23863   23865   23863   23866   23866   23867   23866   23868
   23866   23869   23870   23871   23870   23875   23870   23879
   23870   23883   23871   23872   23871   23873   23871   23874
   23875   23876   23875   23877   23875   23878   23879   23880
   23879   23881   23879   23882   23883   23884   23883   23885
   23883   23886   23886   23887   23886   23888   23886   23893
   23889   23892   23889   23890   23889   23891   23889   23893
   23892   23894   23894   23895   23894   23896   23894   23897
   23897   23898   23897   23905   23897   23899   23899   23900
   23900   23902   23900   23901   23902   23903   23902   23904
   23902   23914   23905   23906   23905   23907   23905   23908
   23908   23909   23909   23911   23909   23910   23911   23912
   23911   23913   23911   23951   23914   23915   23914   23916
   23914   23917   23917   23918   23917   23919   23917   23920
   23920   23921   23920   23922   23920   23923   23923   23924
   23923   23925   23923   23926   23926   23927   23926   23928
   23926   23929   23929   23930   23929   23931   23929   23932
   23932   23933   23932   23934   23932   23935   23935   23936
   23935   23937   23935   23938   23938   23939   23938   23940
   23938   23941   23941   23942   23941   23943   23941   23944
   23944   23945   23944   23946   23944   23947   23947   23948
   23947   23949   23947   23950   23951   23952   23951   23953
   23951   23954   23954   23955   23954   23956   23954   23957
   23957   23958   23957   23959   23957   23960   23960   23961
   23960   23962   23960   23963   23963   23964   23963   23965
   23963   23966   23966   23967   23966   23968   23966   23969
   23969   23970   23969   23971   23969   23972   23972   23973
   23972   23974   23972   23975   23975   23976   23975   23977
   23975   23978   23978   23979   23978   23980   23978   23981
   23981   23982   23981   23983   23981   23984   23984   23985
   23984   23986   23984   23987   23988   23989   23988   23993
   23988   23997   23988   24001   23989   23990   23989   23991
   23989   23992   23993   23994   23993   23995   23993   23996
   23997   23998   23997   23999   23997   24000   24001   24002
   24001   24003   24001   24004   24004   24005   24004   24006
   24004   24011   24007   24010   24007   24008   24007   24009
   24007   24011   24010   24012   24012   24013   24012   24014
   24012   24015   24015   24016   24015   24023   24015   24017
   24017   24018   24018   24020   24018   24019   24020   24021
   24020   24022   24020   24032   24023   24024   24023   24025
   24023   24026   24026   24027   24027   24029   24027   24028
   24029   24030   24029   24031   24029   24069   24032   24033
   24032   24034   24032   24035   24035   24036   24035   24037
   24035   24038   24038   24039   24038   24040   24038   24041
   24041   24042   24041   24043   24041   24044   24044   24045
   24044   24046   24044   24047   24047   24048   24047   24049
   24047   24050   24050   24051   24050   24052   24050   24053
   24053   24054   24053   24055   24053   24056   24056   24057
   24056   24058   24056   24059   24059   24060   24059   24061
   24059   24062   24062   24063   24062   24064   24062   24065
   24065   24066   24065   24067   24065   24068   24069   24070
   24069   24071   24069   24072   24072   24073   24072   24074
   24072   24075   24075   24076   24075   24077   24075   24078
   24078   24079   24078   24080   24078   24081   24081   24082
   24081   24083   24081   24084   24084   24085   24084   24086
   24084   24087   24087   24088   24087   24089   24087   24090
   24090   24091   24090   24092   24090   24093   24093   24094
   24093   24095   24093   24096   24096   24097   24096   24098
   24096   24099   24099   24100   24099   24101   24099   24102
   24102   24103   24102   24104   24102   24105   24106   24107
   24106   24111   24106   24115   24106   24119   24107   24108
   24107   24109   24107   24110   24111   24112   24111   24113
   24111   24114   24115   24116   24115   24117   24115   24118
   24119   24120   24119   24121   24119   24122   24122   24123
   24122   24124   24122   24129   24125   24128   24125   24126
   24125   24127   24125   24129   24128   24130   24130   24131
   24130   24132   24130   24133   24133   24134   24133   24141
   24133   24135   24135   24136   24136   24138   24136   24137
   24138   24139   24138   24140   24138   24150   24141   24142
   24141   24143   24141   24144   24144   24145   24145   24147
   24145   24146   24147   24148   24147   24149   24147   24187
   24150   24151   24150   24152   24150   24153   24153   24154
   24153   24155   24153   24156   24156   24157   24156   24158
   24156   24159   24159   24160   24159   24161   24159   24162
   24162   24163   24162   24164   24162   24165   24165   24166
   24165   24167   24165   24168   24168   24169   24168   24170
   24168   24171   24171   24172   24171   24173   24171   24174
   24174   24175   24174   24176   24174   24177   24177   24178
   24177   24179   24177   24180   24180   24181   24180   24182
   24180   24183   24183   24184   24183   24185   24183   24186
   24187   24188   24187   24189   24187   24190   24190   24191
   24190   24192   24190   24193   24193   24194   24193   24195
   24193   24196   24196   24197   24196   24198   24196   24199
   24199   24200   24199   24201   24199   24202   24202   24203
   24202   24204   24202   24205   24205   24206   24205   24207
   24205   24208   24208   24209   24208   24210   24208   24211
   24211   24212   24211   24213   24211   24214   24214   24215
   24214   24216   24214   24217   24217   24218   24217   24219
   24217   24220   24220   24221   24220   24222   24220   24223
   24224   24225   24224   24229   24224   24233   24224   24237
   24225   24226   24225   24227   24225   24228   24229   24230
   24229   24231   24229   24232   24233   24234   24233   24235
   24233   24236   24237   24238   24237   24239   24237   24240
   24240   24241   24240   24242   24240   24247   24243   24246
   24243   24244   24243   24245   24243   24247   24246   24248
   24248   24249   24248   24250   24248   24251   24251   24252
   24251   24259   24251   24253   24253   24254   24254   24256
   24254   24255   24256   24257   24256   24258   24256   24268
   24259   24260   24259   24261   24259   24262   24262   24263
   24263   24265   24263   24264   24265   24266   24265   24267
   24265   24305   24268   24269   24268   24270   24268   24271
   24271   24272   24271   24273   24271   24274   24274   24275
   24274   24276   24274   24277   24277   24278   24277   24279
   24277   24280   24280   24281   24280   24282   24280   24283
   24283   24284   24283   24285   24283   24286   24286   24287
   24286   24288   24286   24289   24289   24290   24289   24291
   24289   24292   24292   24293   24292   24294   24292   24295
   24295   24296   24295   24297   24295   24298   24298   24299
   24298   24300   24298   24301   24301   24302   24301   24303
   24301   24304   24305   24306   24305   24307   24305   24308
   24308   24309   24308   24310   24308   24311   24311   24312
   24311   24313   24311   24314   24314   24315   24314   24316
   24314   24317   24317   24318   24317   24319   24317   24320
   24320   24321   24320   24322   24320   24323   24323   24324
   24323   24325   24323   24326   24326   24327   24326   24328
   24326   24329   24329   24330   24329   24331   24329   24332
   24332   24333   24332   24334   24332   24335   24335   24336
   24335   24337   24335   24338   24338   24339   24338   24340
   24338   24341   24342   24343   24342   24347   24342   24351
   24342   24355   24343   24344   24343   24345   24343   24346
   24347   24348   24347   24349   24347   24350   24351   24352
   24351   24353   24351   24354   24355   24356   24355   24357
   24355   24358   24358   24359   24358   24360   24358   24365
   24361   24364   24361   24362   24361   24363   24361   24365
   24364   24366   24366   24367   24366   24368   24366   24369
   24369   24370   24369   24377   24369   24371   24371   24372
   24372   24374   24372   24373   24374   24375   24374   24376
   24374   24386   24377   24378   24377   24379   24377   24380
   24380   24381   24381   24383   24381   24382   24383   24384
   24383   24385   24383   24423   24386   24387   24386   24388
   24386   24389   24389   24390   24389   24391   24389   24392
   24392   24393   24392   24394   24392   24395   24395   24396
   24395   24397   24395   24398   24398   24399   24398   24400
   24398   24401   24401   24402   24401   24403   24401   24404
   24404   24405   24404   24406   24404   24407   24407   24408
   24407   24409   24407   24410   24410   24411   24410   24412
   24410   24413   24413   24414   24413   24415   24413   24416
   24416   24417   24416   24418   24416   24419   24419   24420
   24419   24421   24419   24422   24423   24424   24423   24425
   24423   24426   24426   24427   24426   24428   24426   24429
   24429   24430   24429   24431   24429   24432   24432   24433
   24432   24434   24432   24435   24435   24436   24435   24437
   24435   24438   24438   24439   24438   24440   24438   24441
   24441   24442   24441   24443   24441   24444   24444   24445
   24444   24446   24444   24447   24447   24448   24447   24449
   24447   24450   24450   24451   24450   24452   24450   24453
   24453   24454   24453   24455   24453   24456   24456   24457
   24456   24458   24456   24459   24460   24461   24460   24465
   24460   24469   24460   24473   24461   24462   24461   24463
   24461   24464   24465   24466   24465   24467   24465   24468
   24469   24470   24469   24471   24469   24472   24473   24474
   24473   24475   24473   24476   24476   24477   24476   24478
   24476   24483   24479   24482   24479   24480   24479   24481
   24479   24483   24482   24484   24484   24485   24484   24486
   24484   24487   24487   24488   24487   24495   24487   24489
   24489   24490   24490   24492   24490   24491   24492   24493
   24492   24494   24492   24504   24495   24496   24495   24497
   24495   24498   24498   24499   24499   24501   24499   24500
   24501   24502   24501   24503   24501   24541   24504   24505
   24504   24506   24504   24507   24507   24508   24507   24509
   24507   24510   24510   24511   24510   24512   24510   24513
   24513   24514   24513   24515   24513   24516   24516   24517
   24516   24518   24516   24519   24519   24520   24519   24521
   24519   24522   24522   24523   24522   24524   24522   24525
   24525   24526   24525   24527   24525   24528   24528   24529
   24528   24530   24528   24531   24531   24532   24531   24533
   24531   24534   24534   24535   24534   24536   24534   24537
   24537   24538   24537   24539   24537   24540   24541   24542
   24541   24543   24541   24544   24544   24545   24544   24546
   24544   24547   24547   24548   24547   24549   24547   24550
   24550   24551   24550   24552   24550   24553   24553   24554
   24553   24555   24553   24556   24556   24557   24556   24558
   24556   24559   24559   24560   24559   24561   24559   24562
   24562   24563   24562   24564   24562   24565   24565   24566
   24565   24567   24565   24568   24568   24569   24568   24570
   24568   24571   24571   24572   24571   24573   24571   24574
   24574   24575   24574   24576   24574   24577   24578   24579
   24578   24583   24578   24587   24578   24591   24579   24580
   24579   24581   24579   24582   24583   24584   24583   24585
   24583   24586   24587   24588   24587   24589   24587   24590
   24591   24592   24591   24593   24591   24594   24594   24595
   24594   24596   24594   24601   24597   24600   24597   24598
   24597   24599   24597   24601   24600   24602   24602   24603
   24602   24604   24602   24605   24605   24606   24605   24613
   24605   24607   24607   24608   24608   24610   24608   24609
   24610   24611   24610   24612   24610   24622   24613   24614
   24613   24615   24613   24616   24616   24617   24617   24619
   24617   24618   24619   24620   24619   24621   24619   24659
   24622   24623   24622   24624   24622   24625   24625   24626
   24625   24627   24625   24628   24628   24629   24628   24630
   24628   24631   24631   24632   24631   24633   24631   24634
   24634   24635   24634   24636   24634   24637   24637   24638
   24637   24639   24637   24640   24640   24641   24640   24642
   24640   24643   24643   24644   24643   24645   24643   24646
   24646   24647   24646   24648   24646   24649   24649   24650
   24649   24651   24649   24652   24652   24653   24652   24654
   24652   24655   24655   24656   24655   24657   24655   24658
   24659   24660   24659   24661   24659   24662   24662   24663
   24662   24664   24662   24665   24665   24666   24665   24667
   24665   24668   24668   24669   24668   24670   24668   24671
   24671   24672   24671   24673   24671   24674   24674   24675
   24674   24676   24674   24677   24677   24678   24677   24679
   24677   24680   24680   24681   24680   24682   24680   24683
   24683   24684   24683   24685   24683   24686   24686   24687
   24686   24688   24686   24689   24689   24690   24689   24691
   24689   24692   24692   24693   24692   24694   24692   24695
   24696   24697   24696   24701   24696   24705   24696   24709
   24697   24698   24697   24699   24697   24700   24701   24702
   24701   24703   24701   24704   24705   24706   24705   24707
   24705   24708   24709   24710   24709   24711   24709   24712
   24712   24713   24712   24714   24712   24719   24715   24718
   24715   24716   24715   24717   24715   24719   24718   24720
   24720   24721   24720   24722   24720   24723   24723   24724
   24723   24731   24723   24725   24725   24726   24726   24728
   24726   24727   24728   24729   24728   24730   24728   24740
   24731   24732   24731   24733   24731   24734   24734   24735
   24735   24737   24735   24736   24737   24738   24737   24739
   24737   24777   24740   24741   24740   24742   24740   24743
   24743   24744   24743   24745   24743   24746   24746   24747
   24746   24748   24746   24749   24749   24750   24749   24751
   24749   24752   24752   24753   24752   24754   24752   24755
   24755   24756   24755   24757   24755   24758   24758   24759
   24758   24760   24758   24761   24761   24762   24761   24763
   24761   24764   24764   24765   24764   24766   24764   24767
   24767   24768   24767   24769   24767   24770   24770   24771
   24770   24772   24770   24773   24773   24774   24773   24775
   24773   24776   24777   24778   24777   24779   24777   24780
   24780   24781   24780   24782   24780   24783   24783   24784
   24783   24785   24783   24786   24786   24787   24786   24788
   24786   24789   24789   24790   24789   24791   24789   24792
   24792   24793   24792   24794   24792   24795   24795   24796
   24795   24797   24795   24798   24798   24799   24798   24800
   24798   24801   24801   24802   24801   24803   24801   24804
   24804   24805   24804   24806   24804   24807   24807   24808
   24807   24809   24807   24810   24810   24811   24810   24812
   24810   24813   24814   24815   24814   24819   24814   24823
   24814   24827   24815   24816   24815   24817   24815   24818
   24819   24820   24819   24821   24819   24822   24823   24824
   24823   24825   24823   24826   24827   24828   24827   24829
   24827   24830   24830   24831   24830   24832   24830   24837
   24833   24836   24833   24834   24833   24835   24833   24837
   24836   24838   24838   24839   24838   24840   24838   24841
   24841   24842   24841   24849   24841   24843   24843   24844
   24844   24846   24844   24845   24846   24847   24846   24848
   24846   24858   24849   24850   24849   24851   24849   24852
   24852   24853   24853   24855   24853   24854   24855   24856
   24855   24857   24855   24895   24858   24859   24858   24860
   24858   24861   24861   24862   24861   24863   24861   24864
   24864   24865   24864   24866   24864   24867   24867   24868
   24867   24869   24867   24870   24870   24871   24870   24872
   24870   24873   24873   24874   24873   24875   24873   24876
   24876   24877   24876   24878   24876   24879   24879   24880
   24879   24881   24879   24882   24882   24883   24882   24884
   24882   24885   24885   24886   24885   24887   24885   24888
   24888   24889   24888   24890   24888   24891   24891   24892
   24891   24893   24891   24894   24895   24896   24895   24897
   24895   24898   24898   24899   24898   24900   24898   24901
   24901   24902   24901   24903   24901   24904   24904   24905
   24904   24906   24904   24907   24907   24908   24907   24909
   24907   24910   24910   24911   24910   24912   24910   24913
   24913   24914   24913   24915   24913   24916   24916   24917
   24916   24918   24916   24919   24919   24920   24919   24921
   24919   24922   24922   24923   24922   24924   24922   24925
   24925   24926   24925   24927   24925   24928   24928   24929
   24928   24930   24928   24931   24932   24933   24932   24937
   24932   24941   24932   24945   24933   24934   24933   24935
   24933   24936   24937   24938   24937   24939   24937   24940
   24941   24942   24941   24943   24941   24944   24945   24946
   24945   24947   24945   24948   24948   24949   24948   24950
   24948   24955   24951   24954   24951   24952   24951   24953
   24951   24955   24954   24956   24956   24957   24956   24958
   24956   24959   24959   24960   24959   24967   24959   24961
   24961   24962   24962   24964   24962   24963   24964   24965
   24964   24966   24964   24976   24967   24968   24967   24969
   24967   24970   24970   24971   24971   24973   24971   24972
   24973   24974   24973   24975   24973   25013   24976   24977
   24976   24978   24976   24979   24979   24980   24979   24981
   24979   24982   24982   24983   24982   24984   24982   24985
   24985   24986   24985   24987   24985   24988   24988   24989
   24988   24990   24988   24991   24991   24992   24991   24993
   24991   24994   24994   24995   24994   24996   24994   24997
   24997   24998   24997   24999   24997   25000   25000   25001
   25000   25002   25000   25003   25003   25004   25003   25005
   25003   25006   25006   25007   25006   25008   25006   25009
   25009   25010   25009   25011   25009   25012   25013   25014
   25013   25015   25013   25016   25016   25017   25016   25018
   25016   25019   25019   25020   25019   25021   25019   25022
   25022   25023   25022   25024   25022   25025   25025   25026
   25025   25027   25025   25028   25028   25029   25028   25030
   25028   25031   25031   25032   25031   25033   25031   25034
   25034   25035   25034   25036   25034   25037   25037   25038
   25037   25039   25037   25040   25040   25041   25040   25042
   25040   25043   25043   25044   25043   25045   25043   25046
   25046   25047   25046   25048   25046   25049   25050   25051
   25050   25055   25050   25059   25050   25063   25051   25052
   25051   25053   25051   25054   25055   25056   25055   25057
   25055   25058   25059   25060   25059   25061   25059   25062
   25063   25064   25063   25065   25063   25066   25066   25067
   25066   25068   25066   25073   25069   25072   25069   25070
   25069   25071   25069   25073   25072   25074   25074   25075
   25074   25076   25074   25077   25077   25078   25077   25085
   25077   25079   25079   25080   25080   25082   25080   25081
   25082   25083   25082   25084   25082   25094   25085   25086
   25085   25087   25085   25088   25088   25089   25089   25091
   25089   25090   25091   25092   25091   25093   25091   25131
   25094   25095   25094   25096   25094   25097   25097   25098
   25097   25099   25097   25100   25100   25101   25100   25102
   25100   25103   25103   25104   25103   25105   25103   25106
   25106   25107   25106   25108   25106   25109   25109   25110
   25109   25111   25109   25112   25112   25113   25112   25114
   25112   25115   25115   25116   25115   25117   25115   25118
   25118   25119   25118   25120   25118   25121   25121   25122
   25121   25123   25121   25124   25124   25125   25124   25126
   25124   25127   25127   25128   25127   25129   25127   25130
   25131   25132   25131   25133   25131   25134   25134   25135
   25134   25136   25134   25137   25137   25138   25137   25139
   25137   25140   25140   25141   25140   25142   25140   25143
   25143   25144   25143   25145   25143   25146   25146   25147
   25146   25148   25146   25149   25149   25150   25149   25151
   25149   25152   25152   25153   25152   25154   25152   25155
   25155   25156   25155   25157   25155   25158   25158   25159
   25158   25160   25158   25161   25161   25162   25161   25163
   25161   25164   25164   25165   25164   25166   25164   25167
   25168   25169   25168   25173   25168   25177   25168   25181
   25169   25170   25169   25171   25169   25172   25173   25174
   25173   25175   25173   25176   25177   25178   25177   25179
   25177   25180   25181   25182   25181   25183   25181   25184
   25184   25185   25184   25186   25184   25191   25187   25190
   25187   25188   25187   25189   25187   25191   25190   25192
   25192   25193   25192   25194   25192   25195   25195   25196
   25195   25203   25195   25197   25197   25198   25198   25200
   25198   25199   25200   25201   25200   25202   25200   25212
   25203   25204   25203   25205   25203   25206   25206   25207
   25207   25209   25207   25208   25209   25210   25209   25211
   25209   25249   25212   25213   25212   25214   25212   25215
   25215   25216   25215   25217   25215   25218   25218   25219
   25218   25220   25218   25221   25221   25222   25221   25223
   25221   25224   25224   25225   25224   25226   25224   25227
   25227   25228   25227   25229   25227   25230   25230   25231
   25230   25232   25230   25233   25233   25234   25233   25235
   25233   25236   25236   25237   25236   25238   25236   25239
   25239   25240   25239   25241   25239   25242   25242   25243
   25242   25244   25242   25245   25245   25246   25245   25247
   25245   25248   25249   25250   25249   25251   25249   25252
   25252   25253   25252   25254   25252   25255   25255   25256
   25255   25257   25255   25258   25258   25259   25258   25260
   25258   25261   25261   25262   25261   25263   25261   25264
   25264   25265   25264   25266   25264   25267   25267   25268
   25267   25269   25267   25270   25270   25271   25270   25272
   25270   25273   25273   25274   25273   25275   25273   25276
   25276   25277   25276   25278   25276   25279   25279   25280
   25279   25281   25279   25282   25282   25283   25282   25284
   25282   25285   25286   25287   25286   25291   25286   25295
   25286   25299   25287   25288   25287   25289   25287   25290
   25291   25292   25291   25293   25291   25294   25295   25296
   25295   25297   25295   25298   25299   25300   25299   25301
   25299   25302   25302   25303   25302   25304   25302   25309
   25305   25308   25305   25306   25305   25307   25305   25309
   25308   25310   25310   25311   25310   25312   25310   25313
   25313   25314   25313   25321   25313   25315   25315   25316
   25316   25318   25316   25317   25318   25319   25318   25320
   25318   25330   25321   25322   25321   25323   25321   25324
   25324   25325   25325   25327   25325   25326   25327   25328
   25327   25329   25327   25367   25330   25331   25330   25332
   25330   25333   25333   25334   25333   25335   25333   25336
   25336   25337   25336   25338   25336   25339   25339   25340
   25339   25341   25339   25342   25342   25343   25342   25344
   25342   25345   25345   25346   25345   25347   25345   25348
   25348   25349   25348   25350   25348   25351   25351   25352
   25351   25353   25351   25354   25354   25355   25354   25356
   25354   25357   25357   25358   25357   25359   25357   25360
   25360   25361   25360   25362   25360   25363   25363   25364
   25363   25365   25363   25366   25367   25368   25367   25369
   25367   25370   25370   25371   25370   25372   25370   25373
   25373   25374   25373   25375   25373   25376   25376   25377
   25376   25378   25376   25379   25379   25380   25379   25381
   25379   25382   25382   25383   25382   25384   25382   25385
   25385   25386   25385   25387   25385   25388   25388   25389
   25388   25390   25388   25391   25391   25392   25391   25393
   25391   25394   25394   25395   25394   25396   25394   25397
   25397   25398   25397   25399   25397   25400   25400   25401
   25400   25402   25400   25403   25404   25405   25404   25409
   25404   25413   25404   25417   25405   25406   25405   25407
   25405   25408   25409   25410   25409   25411   25409   25412
   25413   25414   25413   25415   25413   25416   25417   25418
   25417   25419   25417   25420   25420   25421   25420   25422
   25420   25427   25423   25426   25423   25424   25423   25425
   25423   25427   25426   25428   25428   25429   25428   25430
   25428   25431   25431   25432   25431   25439   25431   25433
   25433   25434   25434   25436   25434   25435   25436   25437
   25436   25438   25436   25448   25439   25440   25439   25441
   25439   25442   25442   25443   25443   25445   25443   25444
   25445   25446   25445   25447   25445   25485   25448   25449
   25448   25450   25448   25451   25451   25452   25451   25453
   25451   25454   25454   25455   25454   25456   25454   25457
   25457   25458   25457   25459   25457   25460   25460   25461
   25460   25462   25460   25463   25463   25464   25463   25465
   25463   25466   25466   25467   25466   25468   25466   25469
   25469   25470   25469   25471   25469   25472   25472   25473
   25472   25474   25472   25475   25475   25476   25475   25477
   25475   25478   25478   25479   25478   25480   25478   25481
   25481   25482   25481   25483   25481   25484   25485   25486
   25485   25487   25485   25488   25488   25489   25488   25490
   25488   25491   25491   25492   25491   25493   25491   25494
   25494   25495   25494   25496   25494   25497   25497   25498
   25497   25499   25497   25500   25500   25501   25500   25502
   25500   25503   25503   25504   25503   25505   25503   25506
   25506   25507   25506   25508   25506   25509   25509   25510
   25509   25511   25509   25512   25512   25513   25512   25514
   25512   25515   25515   25516   25515   25517   25515   25518
   25518   25519   25518   25520   25518   25521   25522   25523
   25522   25527   25522   25531   25522   25535   25523   25524
   25523   25525   25523   25526   25527   25528   25527   25529
   25527   25530   25531   25532   25531   25533   25531   25534
   25535   25536   25535   25537   25535   25538   25538   25539
   25538   25540   25538   25545   25541   25544   25541   25542
   25541   25543   25541   25545   25544   25546   25546   25547
   25546   25548   25546   25549   25549   25550   25549   25557
   25549   25551   25551   25552   25552   25554   25552   25553
   25554   25555   25554   25556   25554   25566   25557   25558
   25557   25559   25557   25560   25560   25561   25561   25563
   25561   25562   25563   25564   25563   25565   25563   25603
   25566   25567   25566   25568   25566   25569   25569   25570
   25569   25571   25569   25572   25572   25573   25572   25574
   25572   25575   25575   25576   25575   25577   25575   25578
   25578   25579   25578   25580   25578   25581   25581   25582
   25581   25583   25581   25584   25584   25585   25584   25586
   25584   25587   25587   25588   25587   25589   25587   25590
   25590   25591   25590   25592   25590   25593   25593   25594
   25593   25595   25593   25596   25596   25597   25596   25598
   25596   25599   25599   25600   25599   25601   25599   25602
   25603   25604   25603   25605   25603   25606   25606   25607
   25606   25608   25606   25609   25609   25610   25609   25611
   25609   25612   25612   25613   25612   25614   25612   25615
   25615   25616   25615   25617   25615   25618   25618   25619
   25618   25620   25618   25621   25621   25622   25621   25623
   25621   25624   25624   25625   25624   25626   25624   25627
   25627   25628   25627   25629   25627   25630   25630   25631
   25630   25632   25630   25633   25633   25634   25633   25635
   25633   25636   25636   25637   25636   25638   25636   25639
   25640   25641   25640   25645   25640   25649   25640   25653
   25641   25642   25641   25643   25641   25644   25645   25646
   25645   25647   25645   25648   25649   25650   25649   25651
   25649   25652   25653   25654   25653   25655   25653   25656
   25656   25657   25656   25658   25656   25663   25659   25662
   25659   25660   25659   25661   25659   25663   25662   25664
   25664   25665   25664   25666   25664   25667   25667   25668
   25667   25675   25667   25669   25669   25670   25670   25672
   25670   25671   25672   25673   25672   25674   25672   25684
   25675   25676   25675   25677   25675   25678   25678   25679
   25679   25681   25679   25680   25681   25682   25681   25683
   25681   25721   25684   25685   25684   25686   25684   25687
   25687   25688   25687   25689   25687   25690   25690   25691
   25690   25692   25690   25693   25693   25694   25693   25695
   25693   25696   25696   25697   25696   25698   25696   25699
   25699   25700   25699   25701   25699   25702   25702   25703
   25702   25704   25702   25705   25705   25706   25705   25707
   25705   25708   25708   25709   25708   25710   25708   25711
   25711   25712   25711   25713   25711   25714   25714   25715
   25714   25716   25714   25717   25717   25718   25717   25719
   25717   25720   25721   25722   25721   25723   25721   25724
   25724   25725   25724   25726   25724   25727   25727   25728
   25727   25729   25727   25730   25730   25731   25730   25732
   25730   25733   25733   25734   25733   25735   25733   25736
   25736   25737   25736   25738   25736   25739   25739   25740
   25739   25741   25739   25742   25742   25743   25742   25744
   25742   25745   25745   25746   25745   25747   25745   25748
   25748   25749   25748   25750   25748   25751   25751   25752
   25751   25753   25751   25754   25754   25755   25754   25756
   25754   25757   25758   25759   25758   25763   25758   25767
   25758   25771   25759   25760   25759   25761   25759   25762
   25763   25764   25763   25765   25763   25766   25767   25768
   25767   25769   25767   25770   25771   25772   25771   25773
   25771   25774   25774   25775   25774   25776   25774   25781
   25777   25780   25777   25778   25777   25779   25777   25781
   25780   25782   25782   25783   25782   25784   25782   25785
   25785   25786   25785   25793   25785   25787   25787   25788
   25788   25790   25788   25789   25790   25791   25790   25792
   25790   25802   25793   25794   25793   25795   25793   25796
   25796   25797   25797   25799   25797   25798   25799   25800
   25799   25801   25799   25839   25802   25803   25802   25804
   25802   25805   25805   25806   25805   25807   25805   25808
   25808   25809   25808   25810   25808   25811   25811   25812
   25811   25813   25811   25814   25814   25815   25814   25816
   25814   25817   25817   25818   25817   25819   25817   25820
   25820   25821   25820   25822   25820   25823   25823   25824
   25823   25825   25823   25826   25826   25827   25826   25828
   25826   25829   25829   25830   25829   25831   25829   25832
   25832   25833   25832   25834   25832   25835   25835   25836
   25835   25837   25835   25838   25839   25840   25839   25841
   25839   25842   25842   25843   25842   25844   25842   25845
   25845   25846   25845   25847   25845   25848   25848   25849
   25848   25850   25848   25851   25851   25852   25851   25853
   25851   25854   25854   25855   25854   25856   25854   25857
   25857   25858   25857   25859   25857   25860   25860   25861
   25860   25862   25860   25863   25863   25864   25863   25865
   25863   25866   25866   25867   25866   25868   25866   25869
   25869   25870   25869   25871   25869   25872   25872   25873
   25872   25874   25872   25875   25876   25877   25876   25881
   25876   25885   25876   25889   25877   25878   25877   25879
   25877   25880   25881   25882   25881   25883   25881   25884
   25885   25886   25885   25887   25885   25888   25889   25890
   25889   25891   25889   25892   25892   25893   25892   25894
   25892   25899   25895   25898   25895   25896   25895   25897
   25895   25899   25898   25900   25900   25901   25900   25902
   25900   25903   25903   25904   25903   25911   25903   25905
   25905   25906   25906   25908   25906   25907   25908   25909
   25908   25910   25908   25920   25911   25912   25911   25913
   25911   25914   25914   25915   25915   25917   25915   25916
   25917   25918   25917   25919   25917   25957   25920   25921
   25920   25922   25920   25923   25923   25924   25923   25925
   25923   25926   25926   25927   25926   25928   25926   25929
   25929   25930   25929   25931   25929   25932   25932   25933
   25932   25934   25932   25935   25935   25936   25935   25937
   25935   25938   25938   25939   25938   25940   25938   25941
   25941   25942   25941   25943   25941   25944   25944   25945
   25944   25946   25944   25947   25947   25948   25947   25949
   25947   25950   25950   25951   25950   25952   25950   25953
   25953   25954   25953   25955   25953   25956   25957   25958
   25957   25959   25957   25960   25960   25961   25960   25962
   25960   25963   25963   25964   25963   25965   25963   25966
   25966   25967   25966   25968   25966   25969   25969   25970
   25969   25971   25969   25972   25972   25973   25972   25974
   25972   25975   25975   25976   25975   25977   25975   25978
   25978   25979   25978   25980   25978   25981   25981   25982
   25981   25983   25981   25984   25984   25985   25984   25986
   25984   25987   25987   25988   25987   25989   25987   25990
   25990   25991   25990   25992   25990   25993   25994   25995
   25994   25999   25994   26003   25994   26007   25995   25996
   25995   25997   25995   25998   25999   26000   25999   26001
   25999   26002   26003   26004   26003   26005   26003   26006
   26007   26008   26007   26009   26007   26010   26010   26011
   26010   26012   26010   26017   26013   26016   26013   26014
   26013   26015   26013   26017   26016   26018   26018   26019
   26018   26020   26018   26021   26021   26022   26021   26029
   26021   26023   26023   26024   26024   26026   26024   26025
   26026   26027   26026   26028   26026   26038   26029   26030
   26029   26031   26029   26032   26032   26033   26033   26035
   26033   26034   26035   26036   26035   26037   26035   26075
   26038   26039   26038   26040   26038   26041   26041   26042
   26041   26043   26041   26044   26044   26045   26044   26046
   26044   26047   26047   26048   26047   26049   26047   26050
   26050   26051   26050   26052   26050   26053   26053   26054
   26053   26055   26053   26056   26056   26057   26056   26058
   26056   26059   26059   26060   26059   26061   26059   26062
   26062   26063   26062   26064   26062   26065   26065   26066
   26065   26067   26065   26068   26068   26069   26068   26070
   26068   26071   26071   26072   26071   26073   26071   26074
   26075   26076   26075   26077   26075   26078   26078   26079
   26078   26080   26078   26081   26081   26082   26081   26083
   26081   26084   26084   26085   26084   26086   26084   26087
   26087   26088   26087   26089   26087   26090   26090   26091
   26090   26092   26090   26093   26093   26094   26093   26095
   26093   26096   26096   26097   26096   26098   26096   26099
   26099   26100   26099   26101   26099   26102   26102   26103
   26102   26104   26102   26105   26105   26106   26105   26107
   26105   26108   26108   26109   26108   26110   26108   26111
   26112   26113   26112   26117   26112   26121   26112   26125
   26113   26114   26113   26115   26113   26116   26117   26118
   26117   26119   26117   26120   26121   26122   26121   26123
   26121   26124   26125   26126   26125   26127   26125   26128
   26128   26129   26128   26130   26128   26135   26131   26134
   26131   26132   26131   26133   26131   26135   26134   26136
   26136   26137   26136   26138   26136   26139   26139   26140
   26139   26147   26139   26141   26141   26142   26142   26144
   26142   26143   26144   26145   26144   26146   26144   26156
   26147   26148   26147   26149   26147   26150   26150   26151
   26151   26153   26151   26152   26153   26154   26153   26155
   26153   26193   26156   26157   26156   26158   26156   26159
   26159   26160   26159   26161   26159   26162   26162   26163
   26162   26164   26162   26165   26165   26166   26165   26167
   26165   26168   26168   26169   26168   26170   26168   26171
   26171   26172   26171   26173   26171   26174   26174   26175
   26174   26176   26174   26177   26177   26178   26177   26179
   26177   26180   26180   26181   26180   26182   26180   26183
   26183   26184   26183   26185   26183   26186   26186   26187
   26186   26188   26186   26189   26189   26190   26189   26191
   26189   26192   26193   26194   26193   26195   26193   26196
   26196   26197   26196   26198   26196   26199   26199   26200
   26199   26201   26199   26202   26202   26203   26202   26204
   26202   26205   26205   26206   26205   26207   26205   26208
   26208   26209   26208   26210   26208   26211   26211   26212
   26211   26213   26211   26214   26214   26215   26214   26216
   26214   26217   26217   26218   26217   26219   26217   26220
   26220   26221   26220   26222   26220   26223   26223   26224
   26223   26225   26223   26226   26226   26227   26226   26228
   26226   26229   26230   26231   26230   26235   26230   26239
   26230   26243   26231   26232   26231   26233   26231   26234
   26235   26236   26235   26237   26235   26238   26239   26240
   26239   26241   26239   26242   26243   26244   26243   26245
   26243   26246   26246   26247   26246   26248   26246   26253
   26249   26252   26249   26250   26249   26251   26249   26253
   26252   26254   26254   26255   26254   26256   26254   26257
   26257   26258   26257   26265   26257   26259   26259   26260
   26260   26262   26260   26261   26262   26263   26262   26264
   26262   26274   26265   26266   26265   26267   26265   26268
   26268   26269   26269   26271   26269   26270   26271   26272
   26271   26273   26271   26311   26274   26275   26274   26276
   26274   26277   26277   26278   26277   26279   26277   26280
   26280   26281   26280   26282   26280   26283   26283   26284
   26283   26285   26283   26286   26286   26287   26286   26288
   26286   26289   26289   26290   26289   26291   26289   26292
   26292   26293   26292   26294   26292   26295   26295   26296
   26295   26297   26295   26298   26298   26299   26298   26300
   26298   26301   26301   26302   26301   26303   26301   26304
   26304   26305   26304   26306   26304   26307   26307   26308
   26307   26309   26307   26310   26311   26312   26311   26313
   26311   26314   26314   26315   26314   26316   26314   26317
   26317   26318   26317   26319   26317   26320   26320   26321
   26320   26322   26320   26323   26323   26324   26323   26325
   26323   26326   26326   26327   26326   26328   26326   26329
   26329   26330   26329   26331   26329   26332   26332   26333
   26332   26334   26332   26335   26335   26336   26335   26337
   26335   26338   26338   26339   26338   26340   26338   26341
   26341   26342   26341   26343   26341   26344   26344   26345
   26344   26346   26344   26347   26348   26349   26348   26353
   26348   26357   26348   26361   26349   26350   26349   26351
   26349   26352   26353   26354   26353   26355   26353   26356
   26357   26358   26357   26359   26357   26360   26361   26362
   26361   26363   26361   26364   26364   26365   26364   26366
   26364   26371   26367   26370   26367   26368   26367   26369
   26367   26371   26370   26372   26372   26373   26372   26374
   26372   26375   26375   26376   26375   26383   26375   26377
   26377   26378   26378   26380   26378   26379   26380   26381
   26380   26382   26380   26392   26383   26384   26383   26385
   26383   26386   26386   26387   26387   26389   26387   26388
   26389   26390   26389   26391   26389   26429   26392   26393
   26392   26394   26392   26395   26395   26396   26395   26397
   26395   26398   26398   26399   26398   26400   26398   26401
   26401   26402   26401   26403   26401   26404   26404   26405
   26404   26406   26404   26407   26407   26408   26407   26409
   26407   26410   26410   26411   26410   26412   26410   26413
   26413   26414   26413   26415   26413   26416   26416   26417
   26416   26418   26416   26419   26419   26420   26419   26421
   26419   26422   26422   26423   26422   26424   26422   26425
   26425   26426   26425   26427   26425   26428   26429   26430
   26429   26431   26429   26432   26432   26433   26432   26434
   26432   26435   26435   26436   26435   26437   26435   26438
   26438   26439   26438   26440   26438   26441   26441   26442
   26441   26443   26441   26444   26444   26445   26444   26446
   26444   26447   26447   26448   26447   26449   26447   26450
   26450   26451   26450   26452   26450   26453   26453   26454
   26453   26455   26453   26456   26456   26457   26456   26458
   26456   26459   26459   26460   26459   26461   26459   26462
   26462   26463   26462   26464   26462   26465   26466   26467
   26466   26471   26466   26475   26466   26479   26467   26468
   26467   26469   26467   26470   26471   26472   26471   26473
   26471   26474   26475   26476   26475   26477   26475   26478
   26479   26480   26479   26481   26479   26482   26482   26483
   26482   26484   26482   26489   26485   26488   26485   26486
   26485   26487   26485   26489   26488   26490   26490   26491
   26490   26492   26490   26493   26493   26494   26493   26501
   26493   26495   26495   26496   26496   26498   26496   26497
   26498   26499   26498   26500   26498   26510   26501   26502
   26501   26503   26501   26504   26504   26505   26505   26507
   26505   26506   26507   26508   26507   26509   26507   26547
   26510   26511   26510   26512   26510   26513   26513   26514
   26513   26515   26513   26516   26516   26517   26516   26518
   26516   26519   26519   26520   26519   26521   26519   26522
   26522   26523   26522   26524   26522   26525   26525   26526
   26525   26527   26525   26528   26528   26529   26528   26530
   26528   26531   26531   26532   26531   26533   26531   26534
   26534   26535   26534   26536   26534   26537   26537   26538
   26537   26539   26537   26540   26540   26541   26540   26542
   26540   26543   26543   26544   26543   26545   26543   26546
   26547   26548   26547   26549   26547   26550   26550   26551
   26550   26552   26550   26553   26553   26554   26553   26555
   26553   26556   26556   26557   26556   26558   26556   26559
   26559   26560   26559   26561   26559   26562   26562   26563
   26562   26564   26562   26565   26565   26566   26565   26567
   26565   26568   26568   26569   26568   26570   26568   26571
   26571   26572   26571   26573   26571   26574   26574   26575
   26574   26576   26574   26577   26577   26578   26577   26579
   26577   26580   26580   26581   26580   26582   26580   26583
   26584   26585   26584   26589   26584   26593   26584   26597
   26585   26586   26585   26587   26585   26588   26589   26590
   26589   26591   26589   26592   26593   26594   26593   26595
   26593   26596   26597   26598   26597   26599   26597   26600
   26600   26601   26600   26602   26600   26607   26603   26606
   26603   26604   26603   26605   26603   26607   26606   26608
   26608   26609   26608   26610   26608   26611   26611   26612
   26611   26619   26611   26613   26613   26614   26614   26616
   26614   26615   26616   26617   26616   26618   26616   26628
   26619   26620   26619   26621   26619   26622   26622   26623
   26623   26625   26623   26624   26625   26626   26625   26627
   26625   26665   26628   26629   26628   26630   26628   26631
   26631   26632   26631   26633   26631   26634   26634   26635
   26634   26636   26634   26637   26637   26638   26637   26639
   26637   26640   26640   26641   26640   26642   26640   26643
   26643   26644   26643   26645   26643   26646   26646   26647
   26646   26648   26646   26649   26649   26650   26649   26651
   26649   26652   26652   26653   26652   26654   26652   26655
   26655   26656   26655   26657   26655   26658   26658   26659
   26658   26660   26658   26661   26661   26662   26661   26663
   26661   26664   26665   26666   26665   26667   26665   26668
   26668   26669   26668   26670   26668   26671   26671   26672
   26671   26673   26671   26674   26674   26675   26674   26676
   26674   26677   26677   26678   26677   26679   26677   26680
   26680   26681   26680   26682   26680   26683   26683   26684
   26683   26685   26683   26686   26686   26687   26686   26688
   26686   26689   26689   26690   26689   26691   26689   26692
   26692   26693   26692   26694   26692   26695   26695   26696
   26695   26697   26695   26698   26698   26699   26698   26700
   26698   26701   26702   26703   26702   26707   26702   26711
   26702   26715   26703   26704   26703   26705   26703   26706
   26707   26708   26707   26709   26707   26710   26711   26712
   26711   26713   26711   26714   26715   26716   26715   26717
   26715   26718   26718   26719   26718   26720   26718   26725
   26721   26724   26721   26722   26721   26723   26721   26725
   26724   26726   26726   26727   26726   26728   26726   26729
   26729   26730   26729   26737   26729   26731   26731   26732
   26732   26734   26732   26733   26734   26735   26734   26736
   26734   26746   26737   26738   26737   26739   26737   26740
   26740   26741   26741   26743   26741   26742   26743   26744
   26743   26745   26743   26783   26746   26747   26746   26748
   26746   26749   26749   26750   26749   26751   26749   26752
   26752   26753   26752   26754   26752   26755   26755   26756
   26755   26757   26755   26758   26758   26759   26758   26760
   26758   26761   26761   26762   26761   26763   26761   26764
   26764   26765   26764   26766   26764   26767   26767   26768
   26767   26769   26767   26770   26770   26771   26770   26772
   26770   26773   26773   26774   26773   26775   26773   26776
   26776   26777   26776   26778   26776   26779   26779   26780
   26779   26781   26779   26782   26783   26784   26783   26785
   26783   26786   26786   26787   26786   26788   26786   26789
   26789   26790   26789   26791   26789   26792   26792   26793
   26792   26794   26792   26795   26795   26796   26795   26797
   26795   26798   26798   26799   26798   26800   26798   26801
   26801   26802   26801   26803   26801   26804   26804   26805
   26804   26806   26804   26807   26807   26808   26807   26809
   26807   26810   26810   26811   26810   26812   26810   26813
   26813   26814   26813   26815   26813   26816   26816   26817
   26816   26818   26816   26819   26820   26821   26820   26825
   26820   26829   26820   26833   26821   26822   26821   26823
   26821   26824   26825   26826   26825   26827   26825   26828
   26829   26830   26829   26831   26829   26832   26833   26834
   26833   26835   26833   26836   26836   26837   26836   26838
   26836   26843   26839   26842   26839   26840   26839   26841
   26839   26843   26842   26844   26844   26845   26844   26846
   26844   26847   26847   26848   26847   26855   26847   26849
   26849   26850   26850   26852   26850   26851   26852   26853
   26852   26854   26852   26864   26855   26856   26855   26857
   26855   26858   26858   26859   26859   26861   26859   26860
   26861   26862   26861   26863   26861   26901   26864   26865
   26864   26866   26864   26867   26867   26868   26867   26869
   26867   26870   26870   26871   26870   26872   26870   26873
   26873   26874   26873   26875   26873   26876   26876   26877
   26876   26878   26876   26879   26879   26880   26879   26881
   26879   26882   26882   26883   26882   26884   26882   26885
   26885   26886   26885   26887   26885   26888   26888   26889
   26888   26890   26888   26891   26891   26892   26891   26893
   26891   26894   26894   26895   26894   26896   26894   26897
   26897   26898   26897   26899   26897   26900   26901   26902
   26901   26903   26901   26904   26904   26905   26904   26906
   26904   26907   26907   26908   26907   26909   26907   26910
   26910   26911   26910   26912   26910   26913   26913   26914
   26913   26915   26913   26916   26916   26917   26916   26918
   26916   26919   26919   26920   26919   26921   26919   26922
   26922   26923   26922   26924   26922   26925   26925   26926
   26925   26927   26925   26928   26928   26929   26928   26930
   26928   26931   26931   26932   26931   26933   26931   26934
   26934   26935   26934   26936   26934   26937   26938   26939
   26938   26943   26938   26947   26938   26951   26939   26940
   26939   26941   26939   26942   26943   26944   26943   26945
   26943   26946   26947   26948   26947   26949   26947   26950
   26951   26952   26951   26953   26951   26954   26954   26955
   26954   26956   26954   26961   26957   26960   26957   26958
   26957   26959   26957   26961   26960   26962   26962   26963
   26962   26964   26962   26965   26965   26966   26965   26973
   26965   26967   26967   26968   26968   26970   26968   26969
   26970   26971   26970   26972   26970   26982   26973   26974
   26973   26975   26973   26976   26976   26977   26977   26979
   26977   26978   26979   26980   26979   26981   26979   27019
   26982   26983   26982   26984   26982   26985   26985   26986
   26985   26987   26985   26988   26988   26989   26988   26990
   26988   26991   26991   26992   26991   26993   26991   26994
   26994   26995   26994   26996   26994   26997   26997   26998
   26997   26999   26997   27000   27000   27001   27000   27002
   27000   27003   27003   27004   27003   27005   27003   27006
   27006   27007   27006   27008   27006   27009   27009   27010
   27009   27011   27009   27012   27012   27013   27012   27014
   27012   27015   27015   27016   27015   27017   27015   27018
   27019   27020   27019   27021   27019   27022   27022   27023
   27022   27024   27022   27025   27025   27026   27025   27027
   27025   27028   27028   27029   27028   27030   27028   27031
   27031   27032   27031   27033   27031   27034   27034   27035
   27034   27036   27034   27037   27037   27038   27037   27039
   27037   27040   27040   27041   27040   27042   27040   27043
   27043   27044   27043   27045   27043   27046   27046   27047
   27046   27048   27046   27049   27049   27050   27049   27051
   27049   27052   27052   27053   27052   27054   27052   27055
   27056   27057   27056   27061   27056   27065   27056   27069
   27057   27058   27057   27059   27057   27060   27061   27062
   27061   27063   27061   27064   27065   27066   27065   27067
   27065   27068   27069   27070   27069   27071   27069   27072
   27072   27073   27072   27074   27072   27079   27075   27078
   27075   27076   27075   27077   27075   27079   27078   27080
   27080   27081   27080   27082   27080   27083   27083   27084
   27083   27091   27083   27085   27085   27086   27086   27088
   27086   27087   27088   27089   27088   27090   27088   27100
   27091   27092   27091   27093   27091   27094   27094   27095
   27095   27097   27095   27096   27097   27098   27097   27099
   27097   27137   27100   27101   27100   27102   27100   27103
   27103   27104   27103   27105   27103   27106   27106   27107
   27106   27108   27106   27109   27109   27110   27109   27111
   27109   27112   27112   27113   27112   27114   27112   27115
   27115   27116   27115   27117   27115   27118   27118   27119
   27118   27120   27118   27121   27121   27122   27121   27123
   27121   27124   27124   27125   27124   27126   27124   27127
   27127   27128   27127   27129   27127   27130   27130   27131
   27130   27132   27130   27133   27133   27134   27133   27135
   27133   27136   27137   27138   27137   27139   27137   27140
   27140   27141   27140   27142   27140   27143   27143   27144
   27143   27145   27143   27146   27146   27147   27146   27148
   27146   27149   27149   27150   27149   27151   27149   27152
   27152   27153   27152   27154   27152   27155   27155   27156
   27155   27157   27155   27158   27158   27159   27158   27160
   27158   27161   27161   27162   27161   27163   27161   27164
   27164   27165   27164   27166   27164   27167   27167   27168
   27167   27169   27167   27170   27170   27171   27170   27172
   27170   27173   27174   27175   27174   27179   27174   27183
   27174   27187   27175   27176   27175   27177   27175   27178
   27179   27180   27179   27181   27179   27182   27183   27184
   27183   27185   27183   27186   27187   27188   27187   27189
   27187   27190   27190   27191   27190   27192   27190   27197
   27193   27196   27193   27194   27193   27195   27193   27197
   27196   27198   27198   27199   27198   27200   27198   27201
   27201   27202   27201   27209   27201   27203   27203   27204
   27204   27206   27204   27205   27206   27207   27206   27208
   27206   27218   27209   27210   27209   27211   27209   27212
   27212   27213   27213   27215   27213   27214   27215   27216
   27215   27217   27215   27255   27218   27219   27218   27220
   27218   27221   27221   27222   27221   27223   27221   27224
   27224   27225   27224   27226   27224   27227   27227   27228
   27227   27229   27227   27230   27230   27231   27230   27232
   27230   27233   27233   27234   27233   27235   27233   27236
   27236   27237   27236   27238   27236   27239   27239   27240
   27239   27241   27239   27242   27242   27243   27242   27244
   27242   27245   27245   27246   27245   27247   27245   27248
   27248   27249   27248   27250   27248   27251   27251   27252
   27251   27253   27251   27254   27255   27256   27255   27257
   27255   27258   27258   27259   27258   27260   27258   27261
   27261   27262   27261   27263   27261   27264   27264   27265
   27264   27266   27264   27267   27267   27268   27267   27269
   27267   27270   27270   27271   27270   27272   27270   27273
   27273   27274   27273   27275   27273   27276   27276   27277
   27276   27278   27276   27279   27279   27280   27279   27281
   27279   27282   27282   27283   27282   27284   27282   27285
   27285   27286   27285   27287   27285   27288   27288   27289
   27288   27290   27288   27291   27292   27293   27292   27297
   27292   27301   27292   27305   27293   27294   27293   27295
   27293   27296   27297   27298   27297   27299   27297   27300
   27301   27302   27301   27303   27301   27304   27305   27306
   27305   27307   27305   27308   27308   27309   27308   27310
   27308   27315   27311   27314   27311   27312   27311   27313
   27311   27315   27314   27316   27316   27317   27316   27318
   27316   27319   27319   27320   27319   27327   27319   27321
   27321   27322   27322   27324   27322   27323   27324   27325
   27324   27326   27324   27336   27327   27328   27327   27329
   27327   27330   27330   27331   27331   27333   27331   27332
   27333   27334   27333   27335   27333   27373   27336   27337
   27336   27338   27336   27339   27339   27340   27339   27341
   27339   27342   27342   27343   27342   27344   27342   27345
   27345   27346   27345   27347   27345   27348   27348   27349
   27348   27350   27348   27351   27351   27352   27351   27353
   27351   27354   27354   27355   27354   27356   27354   27357
   27357   27358   27357   27359   27357   27360   27360   27361
   27360   27362   27360   27363   27363   27364   27363   27365
   27363   27366   27366   27367   27366   27368   27366   27369
   27369   27370   27369   27371   27369   27372   27373   27374
   27373   27375   27373   27376   27376   27377   27376   27378
   27376   27379   27379   27380   27379   27381   27379   27382
   27382   27383   27382   27384   27382   27385   27385   27386
   27385   27387   27385   27388   27388   27389   27388   27390
   27388   27391   27391   27392   27391   27393   27391   27394
   27394   27395   27394   27396   27394   27397   27397   27398
   27397   27399   27397   27400   27400   27401   27400   27402
   27400   27403   27403   27404   27403   27405   27403   27406
   27406   27407   27406   27408   27406   27409   27410   27411
   27410   27415   27410   27419   27410   27423   27411   27412
   27411   27413   27411   27414   27415   27416   27415   27417
   27415   27418   27419   27420   27419   27421   27419   27422
   27423   27424   27423   27425   27423   27426   27426   27427
   27426   27428   27426   27433   27429   27432   27429   27430
   27429   27431   27429   27433   27432   27434   27434   27435
   27434   27436   27434   27437   27437   27438   27437   27445
   27437   27439   27439   27440   27440   27442   27440   27441
   27442   27443   27442   27444   27442   27454   27445   27446
   27445   27447   27445   27448   27448   27449   27449   27451
   27449   27450   27451   27452   27451   27453   27451   27491
   27454   27455   27454   27456   27454   27457   27457   27458
   27457   27459   27457   27460   27460   27461   27460   27462
   27460   27463   27463   27464   27463   27465   27463   27466
   27466   27467   27466   27468   27466   27469   27469   27470
   27469   27471   27469   27472   27472   27473   27472   27474
   27472   27475   27475   27476   27475   27477   27475   27478
   27478   27479   27478   27480   27478   27481   27481   27482
   27481   27483   27481   27484   27484   27485   27484   27486
   27484   27487   27487   27488   27487   27489   27487   27490
   27491   27492   27491   27493   27491   27494   27494   27495
   27494   27496   27494   27497   27497   27498   27497   27499
   27497   27500   27500   27501   27500   27502   27500   27503
   27503   27504   27503   27505   27503   27506   27506   27507
   27506   27508   27506   27509   27509   27510   27509   27511
   27509   27512   27512   27513   27512   27514   27512   27515
   27515   27516   27515   27517   27515   27518   27518   27519
   27518   27520   27518   27521   27521   27522   27521   27523
   27521   27524   27524   27525   27524   27526   27524   27527
   27528   27529   27528   27533   27528   27537   27528   27541
   27529   27530   27529   27531   27529   27532   27533   27534
   27533   27535   27533   27536   27537   27538   27537   27539
   27537   27540   27541   27542   27541   27543   27541   27544
   27544   27545   27544   27546   27544   27551   27547   27550
   27547   27548   27547   27549   27547   27551   27550   27552
   27552   27553   27552   27554   27552   27555   27555   27556
   27555   27563   27555   27557   27557   27558   27558   27560
   27558   27559   27560   27561   27560   27562   27560   27572
   27563   27564   27563   27565   27563   27566   27566   27567
   27567   27569   27567   27568   27569   27570   27569   27571
   27569   27609   27572   27573   27572   27574   27572   27575
   27575   27576   27575   27577   27575   27578   27578   27579
   27578   27580   27578   27581   27581   27582   27581   27583
   27581   27584   27584   27585   27584   27586   27584   27587
   27587   27588   27587   27589   27587   27590   27590   27591
   27590   27592   27590   27593   27593   27594   27593   27595
   27593   27596   27596   27597   27596   27598   27596   27599
   27599   27600   27599   27601   27599   27602   27602   27603
   27602   27604   27602   27605   27605   27606   27605   27607
   27605   27608   27609   27610   27609   27611   27609   27612
   27612   27613   27612   27614   27612   27615   27615   27616
   27615   27617   27615   27618   27618   27619   27618   27620
   27618   27621   27621   27622   27621   27623   27621   27624
   27624   27625   27624   27626   27624   27627   27627   27628
   27627   27629   27627   27630   27630   27631   27630   27632
   27630   27633   27633   27634   27633   27635   27633   27636
   27636   27637   27636   27638   27636   27639   27639   27640
   27639   27641   27639   27642   27642   27643   27642   27644
   27642   27645   27646   27647   27646   27651   27646   27655
   27646   27659   27647   27648   27647   27649   27647   27650
   27651   27652   27651   27653   27651   27654   27655   27656
   27655   27657   27655   27658   27659   27660   27659   27661
   27659   27662   27662   27663   27662   27664   27662   27669
   27665   27668   27665   27666   27665   27667   27665   27669
   27668   27670   27670   27671   27670   27672   27670   27673
   27673   27674   27673   27681   27673   27675   27675   27676
   27676   27678   27676   27677   27678   27679   27678   27680
   27678   27690   27681   27682   27681   27683   27681   27684
   27684   27685   27685   27687   27685   27686   27687   27688
   27687   27689   27687   27727   27690   27691   27690   27692
   27690   27693   27693   27694   27693   27695   27693   27696
   27696   27697   27696   27698   27696   27699   27699   27700
   27699   27701   27699   27702   27702   27703   27702   27704
   27702   27705   27705   27706   27705   27707   27705   27708
   27708   27709   27708   27710   27708   27711   27711   27712
   27711   27713   27711   27714   27714   27715   27714   27716
   27714   27717   27717   27718   27717   27719   27717   27720
   27720   27721   27720   27722   27720   27723   27723   27724
   27723   27725   27723   27726   27727   27728   27727   27729
   27727   27730   27730   27731   27730   27732   27730   27733
   27733   27734   27733   27735   27733   27736   27736   27737
   27736   27738   27736   27739   27739   27740   27739   27741
   27739   27742   27742   27743   27742   27744   27742   27745
   27745   27746   27745   27747   27745   27748   27748   27749
   27748   27750   27748   27751   27751   27752   27751   27753
   27751   27754   27754   27755   27754   27756   27754   27757
   27757   27758   27757   27759   27757   27760   27760   27761
   27760   27762   27760   27763   27764   27765   27764   27769
   27764   27773   27764   27777   27765   27766   27765   27767
   27765   27768   27769   27770   27769   27771   27769   27772
   27773   27774   27773   27775   27773   27776   27777   27778
   27777   27779   27777   27780   27780   27781   27780   27782
   27780   27787   27783   27786   27783   27784   27783   27785
   27783   27787   27786   27788   27788   27789   27788   27790
   27788   27791   27791   27792   27791   27799   27791   27793
   27793   27794   27794   27796   27794   27795   27796   27797
   27796   27798   27796   27808   27799   27800   27799   27801
   27799   27802   27802   27803   27803   27805   27803   27804
   27805   27806   27805   27807   27805   27845   27808   27809
   27808   27810   27808   27811   27811   27812   27811   27813
   27811   27814   27814   27815   27814   27816   27814   27817
   27817   27818   27817   27819   27817   27820   27820   27821
   27820   27822   27820   27823   27823   27824   27823   27825
   27823   27826   27826   27827   27826   27828   27826   27829
   27829   27830   27829   27831   27829   27832   27832   27833
   27832   27834   27832   27835   27835   27836   27835   27837
   27835   27838   27838   27839   27838   27840   27838   27841
   27841   27842   27841   27843   27841   27844   27845   27846
   27845   27847   27845   27848   27848   27849   27848   27850
   27848   27851   27851   27852   27851   27853   27851   27854
   27854   27855   27854   27856   27854   27857   27857   27858
   27857   27859   27857   27860   27860   27861   27860   27862
   27860   27863   27863   27864   27863   27865   27863   27866
   27866   27867   27866   27868   27866   27869   27869   27870
   27869   27871   27869   27872   27872   27873   27872   27874
   27872   27875   27875   27876   27875   27877   27875   27878
   27878   27879   27878   27880   27878   27881   27882   27883
   27882   27887   27882   27891   27882   27895   27883   27884
   27883   27885   27883   27886   27887   27888   27887   27889
   27887   27890   27891   27892   27891   27893   27891   27894
   27895   27896   27895   27897   27895   27898   27898   27899
   27898   27900   27898   27905   27901   27904   27901   27902
   27901   27903   27901   27905   27904   27906   27906   27907
   27906   27908   27906   27909   27909   27910   27909   27917
   27909   27911   27911   27912   27912   27914   27912   27913
   27914   27915   27914   27916   27914   27926   27917   27918
   27917   27919   27917   27920   27920   27921   27921   27923
   27921   27922   27923   27924   27923   27925   27923   27963
   27926   27927   27926   27928   27926   27929   27929   27930
   27929   27931   27929   27932   27932   27933   27932   27934
   27932   27935   27935   27936   27935   27937   27935   27938
   27938   27939   27938   27940   27938   27941   27941   27942
   27941   27943   27941   27944   27944   27945   27944   27946
   27944   27947   27947   27948   27947   27949   27947   27950
   27950   27951   27950   27952   27950   27953   27953   27954
   27953   27955   27953   27956   27956   27957   27956   27958
   27956   27959   27959   27960   27959   27961   27959   27962
   27963   27964   27963   27965   27963   27966   27966   27967
   27966   27968   27966   27969   27969   27970   27969   27971
   27969   27972   27972   27973   27972   27974   27972   27975
   27975   27976   27975   27977   27975   27978   27978   27979
   27978   27980   27978   27981   27981   27982   27981   27983
   27981   27984   27984   27985   27984   27986   27984   27987
   27987   27988   27987   27989   27987   27990   27990   27991
   27990   27992   27990   27993   27993   27994   27993   27995
   27993   27996   27996   27997   27996   27998   27996   27999
   28000   28001   28000   28005   28000   28009   28000   28013
   28001   28002   28001   28003   28001   28004   28005   28006
   28005   28007   28005   28008   28009   28010   28009   28011
   28009   28012   28013   28014   28013   28015   28013   28016
   28016   28017   28016   28018   28016   28023   28019   28022
   28019   28020   28019   28021   28019   28023   28022   28024
   28024   28025   28024   28026   28024   28027   28027   28028
   28027   28035   28027   28029   28029   28030   28030   28032
   28030   28031   28032   28033   28032   28034   28032   28044
   28035   28036   28035   28037   28035   28038   28038   28039
   28039   28041   28039   28040   28041   28042   28041   28043
   28041   28081   28044   28045   28044   28046   28044   28047
   28047   28048   28047   28049   28047   28050   28050   28051
   28050   28052   28050   28053   28053   28054   28053   28055
   28053   28056   28056   28057   28056   28058   28056   28059
   28059   28060   28059   28061   28059   28062   28062   28063
   28062   28064   28062   28065   28065   28066   28065   28067
   28065   28068   28068   28069   28068   28070   28068   28071
   28071   28072   28071   28073   28071   28074   28074   28075
   28074   28076   28074   28077   28077   28078   28077   28079
   28077   28080   28081   28082   28081   28083   28081   28084
   28084   28085   28084   28086   28084   28087   28087   28088
   28087   28089   28087   28090   28090   28091   28090   28092
   28090   28093   28093   28094   28093   28095   28093   28096
   28096   28097   28096   28098   28096   28099   28099   28100
   28099   28101   28099   28102   28102   28103   28102   28104
   28102   28105   28105   28106   28105   28107   28105   28108
   28108   28109   28108   28110   28108   28111   28111   28112
   28111   28113   28111   28114   28114   28115   28114   28116
   28114   28117   28118   28119   28118   28123   28118   28127
   28118   28131   28119   28120   28119   28121   28119   28122
   28123   28124   28123   28125   28123   28126   28127   28128
   28127   28129   28127   28130   28131   28132   28131   28133
   28131   28134   28134   28135   28134   28136   28134   28141
   28137   28140   28137   28138   28137   28139   28137   28141
   28140   28142   28142   28143   28142   28144   28142   28145
   28145   28146   28145   28153   28145   28147   28147   28148
   28148   28150   28148   28149   28150   28151   28150   28152
   28150   28162   28153   28154   28153   28155   28153   28156
   28156   28157   28157   28159   28157   28158   28159   28160
   28159   28161   28159   28199   28162   28163   28162   28164
   28162   28165   28165   28166   28165   28167   28165   28168
   28168   28169   28168   28170   28168   28171   28171   28172
   28171   28173   28171   28174   28174   28175   28174   28176
   28174   28177   28177   28178   28177   28179   28177   28180
   28180   28181   28180   28182   28180   28183   28183   28184
   28183   28185   28183   28186   28186   28187   28186   28188
   28186   28189   28189   28190   28189   28191   28189   28192
   28192   28193   28192   28194   28192   28195   28195   28196
   28195   28197   28195   28198   28199   28200   28199   28201
   28199   28202   28202   28203   28202   28204   28202   28205
   28205   28206   28205   28207   28205   28208   28208   28209
   28208   28210   28208   28211   28211   28212   28211   28213
   28211   28214   28214   28215   28214   28216   28214   28217
   28217   28218   28217   28219   28217   28220   28220   28221
   28220   28222   28220   28223   28223   28224   28223   28225
   28223   28226   28226   28227   28226   28228   28226   28229
   28229   28230   28229   28231   28229   28232   28232   28233
   28232   28234   28232   28235

   33305 !NTHETA: angles
       2       1       3       5       4       6       8       7       9
      11      10      12      14      13      15      17      16      18
      20      19      21      23      22      24      26      25      27
      29      28      30      32      31      33      35      34      36
      38      37      39      41      40      42      44      43      45
      47      46      48      50      49      51      53      52      54
      56      55      57      59      58      60      62      61      63
      65      64      66      68      67      69      71      70      72
      74      73      75      77      76      78      80      79      81
      83      82      84      86      85      87      89      88      90
      92      91      93      95      94      96      98      97      99
     101     100     102     104     103     105     107     106     108
     110     109     111     113     112     114     116     115     117
     119     118     120     122     121     123     125     124     126
     128     127     129     131     130     132     134     133     135
     137     136     138     140     139     141     143     142     144
     146     145     147     149     148     150     152     151     153
     155     154     156     158     157     159     161     160     162
     164     163     165     167     166     168     170     169     171
     173     172     174     176     175     177     179     178     180
     182     181     183     185     184     186     188     187     189
     191     190     192     194     193     195     197     196     198
     200     199     201     203     202     204     206     205     207
     209     208     210     212     211     213     215     214     216
     218     217     219     221     220     222     224     223     225
     227     226     228     230     229     231     233     232     234
     236     235     237     239     238     240     242     241     243
     245     244     246     248     247     249     251     250     252
     254     253     255     257     256     258     260     259     261
     263     262     264     266     265     267     269     268     270
     272     271     273     275     274     276     278     277     279
     281     280     282     284     283     285     287     286     288
     290     289     291     293     292     294     296     295     297
     299     298     300     302     301     303     305     304     306
     308     307     309     311     310     312     314     313     315
     317     316     318     320     319     321     323     322     324
     326     325     327     329     328     330     332     331     333
     335     334     336     338     337     339     341     340     342
     344     343     345     347     346     348     350     349     351
     353     352     354     356     355     357     359     358     360
     362     361     363     365     364     366     368     367     369
     371     370     372     374     373     375     377     376     378
     380     379     381     383     382     384     386     385     387
     389     388     390     392     391     393     395     394     396
     398     397     399     401     400     402     404     403     405
     407     406     408     410     409     411     413     412     414
     416     415     417     419     418     420     422     421     423
     425     424     426     428     427     429     431     430     432
     434     433     435     437     436     438     440     439     441
     443     442     444     446     445     447     449     448     450
     452     451     453     455     454     456     458     457     459
     461     460     462     464     463     465     467     466     468
     470     469     471     473     472     474     476     475     477
     479     478     480     482     481     483     485     484     486
     488     487     489     491     490     492     494     493     495
     497     496     498     500     499     501     503     502     504
     506     505     507     509     508     510     512     511     513
     515     514     516     518     517     519     521     520     522
     524     523     525     527     526     528     530     529     531
     533     532     534     536     535     537     539     538     540
     542     541     543     545     544     546     548     547     549
     551     550     552     554     553     555     557     556     558
     560     559     561     563     562     564     566     565     567
     569     568     570     572     571     573     575     574     576
     578     577     579     581     580     582     584     583     585
     587     586     588     590     589     591     593     592     594
     596     595     597     599     598     600     602     601     603
     605     604     606     608     607     609     611     610     612
     614     613     615     617     616     618     620     619     621
     623     622     624     626     625     627     629     628     630
     632     631     633     635     634     636     638     637     639
     641     640     642     644     643     645     647     646     648
     650     649     651     653     652     654     656     655     657
     659     658     660     662     661     663     665     664     666
     668     667     669     671     670     672     674     673     675
     677     676     678     680     679     681     683     682     684
     686     685     687     689     688     690     692     691     693
     695     694     696     698     697     699     701     700     702
     704     703     705     707     706     708     710     709     711
     713     712     714     716     715     717     719     718     720
     722     721     723     725     724     726     728     727     729
     731     730     732     734     733     735     737     736     738
     740     739     741     743     742     744     746     745     747
     749     748     750     752     751     753     755     754     756
     758     757     759     761     760     762     764     763     765
     767     766     768     770     769     771     773     772     774
     776     775     777     779     778     780     782     781     783
     785     784     786     788     787     789     791     790     792
     794     793     795     797     796     798     800     799     801
     803     802     804     806     805     807     809     808     810
     812     811     813     815     814     816     818     817     819
     821     820     822     824     823     825     827     826     828
     830     829     831     833     832     834     836     835     837
     839     838     840     842     841     843     845     844     846
     848     847     849     851     850     852     854     853     855
     857     856     858     860     859     861     863     862     864
     866     865     867     869     868     870     872     871     873
     875     874     876     878     877     879     881     880     882
     884     883     885     887     886     888     890     889     891
     893     892     894     896     895     897     899     898     900
     902     901     903     905     904     906     908     907     909
     911     910     912     914     913     915     917     916     918
     920     919     921     923     922     924     926     925     927
     929     928     930     932     931     933     935     934     936
     938     937     939     941     940     942     944     943     945
     947     946     948     950     949     951     953     952     954
     956     955     957     959     958     960     962     961     963
     965     964     966     968     967     969     971     970     972
     974     973     975     977     976     978     980     979     981
     983     982     984     986     985     987     989     988     990
     992     991     993     995     994     996     998     997     999
    1001    1000    1002    1004    1003    1005    1007    1006    1008
    1010    1009    1011    1013    1012    1014    1016    1015    1017
    1019    1018    1020    1022    1021    1023    1025    1024    1026
    1028    1027    1029    1031    1030    1032    1034    1033    1035
    1037    1036    1038    1040    1039    1041    1043    1042    1044
    1046    1045    1047    1049    1048    1050    1052    1051    1053
    1055    1054    1056    1058    1057    1059    1061    1060    1062
    1064    1063    1065    1067    1066    1068    1070    1069    1071
    1073    1072    1074    1076    1075    1077    1079    1078    1080
    1082    1081    1083    1085    1084    1086    1088    1087    1089
    1091    1090    1092    1094    1093    1095    1097    1096    1098
    1100    1099    1101    1103    1102    1104    1106    1105    1107
    1109    1108    1110    1112    1111    1113    1115    1114    1116
    1118    1117    1119    1121    1120    1122    1124    1123    1125
    1127    1126    1128    1130    1129    1131    1133    1132    1134
    1136    1135    1137    1139    1138    1140    1142    1141    1143
    1145    1144    1146    1148    1147    1149    1151    1150    1152
    1154    1153    1155    1157    1156    1158    1160    1159    1161
    1163    1162    1164    1166    1165    1167    1169    1168    1170
    1172    1171    1173    1175    1174    1176    1178    1177    1179
    1181    1180    1182    1184    1183    1185    1187    1186    1188
    1190    1189    1191    1193    1192    1194    1196    1195    1197
    1199    1198    1200    1202    1201    1203    1205    1204    1206
    1208    1207    1209    1211    1210    1212    1214    1213    1215
    1217    1216    1218    1220    1219    1221    1223    1222    1224
    1226    1225    1227    1229    1228    1230    1232    1231    1233
    1235    1234    1236    1238    1237    1239    1241    1240    1242
    1244    1243    1245    1247    1246    1248    1250    1249    1251
    1253    1252    1254    1256    1255    1257    1259    1258    1260
    1262    1261    1263    1265    1264    1266    1268    1267    1269
    1271    1270    1272    1274    1273    1275    1277    1276    1278
    1280    1279    1281    1283    1282    1284    1286    1285    1287
    1289    1288    1290    1292    1291    1293    1295    1294    1296
    1298    1297    1299    1301    1300    1302    1304    1303    1305
    1307    1306    1308    1310    1309    1311    1313    1312    1314
    1316    1315    1317    1319    1318    1320    1322    1321    1323
    1325    1324    1326    1328    1327    1329    1331    1330    1332
    1334    1333    1335    1337    1336    1338    1340    1339    1341
    1343    1342    1344    1346    1345    1347    1349    1348    1350
    1352    1351    1353    1355    1354    1356    1358    1357    1359
    1361    1360    1362    1364    1363    1365    1367    1366    1368
    1370    1369    1371    1373    1372    1374    1376    1375    1377
    1379    1378    1380    1382    1381    1383    1385    1384    1386
    1388    1387    1389    1391    1390    1392    1394    1393    1395
    1397    1396    1398    1400    1399    1401    1403    1402    1404
    1406    1405    1407    1409    1408    1410    1412    1411    1413
    1415    1414    1416    1418    1417    1419    1421    1420    1422
    1424    1423    1425    1427    1426    1428    1430    1429    1431
    1433    1432    1434    1436    1435    1437    1439    1438    1440
    1442    1441    1443    1445    1444    1446    1448    1447    1449
    1451    1450    1452    1454    1453    1455    1457    1456    1458
    1460    1459    1461    1463    1462    1464    1466    1465    1467
    1469    1468    1470    1472    1471    1473    1475    1474    1476
    1478    1477    1479    1481    1480    1482    1484    1483    1485
    1487    1486    1488    1490    1489    1491    1493    1492    1494
    1496    1495    1497    1499    1498    1500    1502    1501    1503
    1505    1504    1506    1508    1507    1509    1511    1510    1512
    1514    1513    1515    1517    1516    1518    1520    1519    1521
    1523    1522    1524    1526    1525    1527    1529    1528    1530
    1532    1531    1533    1535    1534    1536    1538    1537    1539
    1541    1540    1542    1544    1543    1545    1547    1546    1548
    1550    1549    1551    1553    1552    1554    1556    1555    1557
    1559    1558    1560    1562    1561    1563    1565    1564    1566
    1568    1567    1569    1571    1570    1572    1574    1573    1575
    1577    1576    1578    1580    1579    1581    1583    1582    1584
    1586    1585    1587    1589    1588    1590    1592    1591    1593
    1595    1594    1596    1598    1597    1599    1601    1600    1602
    1604    1603    1605    1607    1606    1608    1610    1609    1611
    1613    1612    1614    1616    1615    1617    1619    1618    1620
    1622    1621    1623    1625    1624    1626    1628    1627    1629
    1631    1630    1632    1634    1633    1635    1637    1636    1638
    1640    1639    1641    1643    1642    1644    1646    1645    1647
    1649    1648    1650    1652    1651    1653    1655    1654    1656
    1658    1657    1659    1661    1660    1662    1664    1663    1665
    1667    1666    1668    1670    1669    1671    1673    1672    1674
    1676    1675    1677    1679    1678    1680    1682    1681    1683
    1685    1684    1686    1688    1687    1689    1691    1690    1692
    1694    1693    1695    1697    1696    1698    1700    1699    1701
    1703    1702    1704    1706    1705    1707    1709    1708    1710
    1712    1711    1713    1715    1714    1716    1718    1717    1719
    1721    1720    1722    1724    1723    1725    1727    1726    1728
    1730    1729    1731    1733    1732    1734    1736    1735    1737
    1739    1738    1740    1742    1741    1743    1745    1744    1746
    1748    1747    1749    1751    1750    1752    1754    1753    1755
    1757    1756    1758    1760    1759    1761    1763    1762    1764
    1766    1765    1767    1769    1768    1770    1772    1771    1773
    1775    1774    1776    1778    1777    1779    1781    1780    1782
    1784    1783    1785    1787    1786    1788    1790    1789    1791
    1793    1792    1794    1796    1795    1797    1799    1798    1800
    1802    1801    1803    1805    1804    1806    1808    1807    1809
    1811    1810    1812    1814    1813    1815    1817    1816    1818
    1820    1819    1821    1823    1822    1824    1826    1825    1827
    1829    1828    1830    1832    1831    1833    1835    1834    1836
    1838    1837    1839    1841    1840    1842    1844    1843    1845
    1847    1846    1848    1850    1849    1851    1853    1852    1854
    1856    1855    1857    1859    1858    1860    1862    1861    1863
    1865    1864    1866    1868    1867    1869    1871    1870    1872
    1874    1873    1875    1877    1876    1878    1880    1879    1881
    1883    1882    1884    1886    1885    1887    1889    1888    1890
    1892    1891    1893    1895    1894    1896    1898    1897    1899
    1901    1900    1902    1904    1903    1905    1907    1906    1908
    1910    1909    1911    1913    1912    1914    1916    1915    1917
    1919    1918    1920    1922    1921    1923    1925    1924    1926
    1928    1927    1929    1931    1930    1932    1934    1933    1935
    1937    1936    1938    1940    1939    1941    1943    1942    1944
    1946    1945    1947    1949    1948    1950    1952    1951    1953
    1955    1954    1956    1958    1957    1959    1961    1960    1962
    1964    1963    1965    1967    1966    1968    1970    1969    1971
    1973    1972    1974    1976    1975    1977    1979    1978    1980
    1982    1981    1983    1985    1984    1986    1988    1987    1989
    1991    1990    1992    1994    1993    1995    1997    1996    1998
    2000    1999    2001    2003    2002    2004    2006    2005    2007
    2009    2008    2010    2012    2011    2013    2015    2014    2016
    2018    2017    2019    2021    2020    2022    2024    2023    2025
    2027    2026    2028    2030    2029    2031    2033    2032    2034
    2036    2035    2037    2039    2038    2040    2042    2041    2043
    2045    2044    2046    2048    2047    2049    2051    2050    2052
    2054    2053    2055    2057    2056    2058    2060    2059    2061
    2063    2062    2064    2066    2065    2067    2069    2068    2070
    2072    2071    2073    2075    2074    2076    2078    2077    2079
    2081    2080    2082    2084    2083    2085    2087    2086    2088
    2090    2089    2091    2093    2092    2094    2096    2095    2097
    2099    2098    2100    2102    2101    2103    2105    2104    2106
    2108    2107    2109    2111    2110    2112    2114    2113    2115
    2117    2116    2118    2120    2119    2121    2123    2122    2124
    2126    2125    2127    2129    2128    2130    2132    2131    2133
    2135    2134    2136    2138    2137    2139    2141    2140    2142
    2144    2143    2145    2147    2146    2148    2150    2149    2151
    2153    2152    2154    2156    2155    2157    2159    2158    2160
    2162    2161    2163    2165    2164    2166    2168    2167    2169
    2171    2170    2172    2174    2173    2175    2177    2176    2178
    2180    2179    2181    2183    2182    2184    2186    2185    2187
    2189    2188    2190    2192    2191    2193    2195    2194    2196
    2198    2197    2199    2201    2200    2202    2204    2203    2205
    2207    2206    2208    2210    2209    2211    2213    2212    2214
    2216    2215    2217    2219    2218    2220    2222    2221    2223
    2225    2224    2226    2228    2227    2229    2231    2230    2232
    2234    2233    2235    2237    2236    2238    2240    2239    2241
    2243    2242    2244    2246    2245    2247    2249    2248    2250
    2252    2251    2253    2255    2254    2256    2258    2257    2259
    2261    2260    2262    2264    2263    2265    2267    2266    2268
    2270    2269    2271    2273    2272    2274    2276    2275    2277
    2279    2278    2280    2282    2281    2283    2285    2284    2286
    2288    2287    2289    2291    2290    2292    2294    2293    2295
    2297    2296    2298    2300    2299    2301    2303    2302    2304
    2306    2305    2307    2309    2308    2310    2312    2311    2313
    2315    2314    2316    2318    2317    2319    2321    2320    2322
    2324    2323    2325    2327    2326    2328    2330    2329    2331
    2333    2332    2334    2336    2335    2337    2339    2338    2340
    2342    2341    2343    2345    2344    2346    2348    2347    2349
    2351    2350    2352    2354    2353    2355    2357    2356    2358
    2360    2359    2361    2363    2362    2364    2366    2365    2367
    2369    2368    2370    2372    2371    2373    2375    2374    2376
    2378    2377    2379    2381    2380    2382    2384    2383    2385
    2387    2386    2388    2390    2389    2391    2393    2392    2394
    2396    2395    2397    2399    2398    2400    2402    2401    2403
    2405    2404    2406    2408    2407    2409    2411    2410    2412
    2414    2413    2415    2417    2416    2418    2420    2419    2421
    2423    2422    2424    2426    2425    2427    2429    2428    2430
    2432    2431    2433    2435    2434    2436    2438    2437    2439
    2441    2440    2442    2444    2443    2445    2447    2446    2448
    2450    2449    2451    2453    2452    2454    2456    2455    2457
    2459    2458    2460    2462    2461    2463    2465    2464    2466
    2468    2467    2469    2471    2470    2472    2474    2473    2475
    2477    2476    2478    2480    2479    2481    2483    2482    2484
    2486    2485    2487    2489    2488    2490    2492    2491    2493
    2495    2494    2496    2498    2497    2499    2501    2500    2502
    2504    2503    2505    2507    2506    2508    2510    2509    2511
    2513    2512    2514    2516    2515    2517    2519    2518    2520
    2522    2521    2523    2525    2524    2526    2528    2527    2529
    2531    2530    2532    2534    2533    2535    2537    2536    2538
    2540    2539    2541    2543    2542    2544    2546    2545    2547
    2549    2548    2550    2552    2551    2553    2555    2554    2556
    2558    2557    2559    2561    2560    2562    2564    2563    2565
    2567    2566    2568    2570    2569    2571    2573    2572    2574
    2576    2575    2577    2579    2578    2580    2582    2581    2583
    2585    2584    2586    2588    2587    2589    2591    2590    2592
    2594    2593    2595    2597    2596    2598    2600    2599    2601
    2603    2602    2604    2606    2605    2607    2609    2608    2610
    2612    2611    2613    2615    2614    2616    2618    2617    2619
    2621    2620    2622    2624    2623    2625    2627    2626    2628
    2630    2629    2631    2633    2632    2634    2636    2635    2637
    2639    2638    2640    2642    2641    2643    2645    2644    2646
    2648    2647    2649    2651    2650    2652    2654    2653    2655
    2657    2656    2658    2660    2659    2661    2663    2662    2664
    2666    2665    2667    2669    2668    2670    2672    2671    2673
    2675    2674    2676    2678    2677    2679    2681    2680    2682
    2684    2683    2685    2687    2686    2688    2690    2689    2691
    2693    2692    2694    2696    2695    2697    2699    2698    2700
    2702    2701    2703    2705    2704    2706    2708    2707    2709
    2711    2710    2712    2714    2713    2715    2717    2716    2718
    2720    2719    2721    2723    2722    2724    2726    2725    2727
    2729    2728    2730    2732    2731    2733    2735    2734    2736
    2738    2737    2739    2741    2740    2742    2744    2743    2745
    2747    2746    2748    2750    2749    2751    2753    2752    2754
    2756    2755    2757    2759    2758    2760    2762    2761    2763
    2765    2764    2766    2768    2767    2769    2771    2770    2772
    2774    2773    2775    2777    2776    2778    2780    2779    2781
    2783    2782    2784    2786    2785    2787    2789    2788    2790
    2792    2791    2793    2795    2794    2796    2798    2797    2799
    2801    2800    2802    2804    2803    2805    2807    2806    2808
    2810    2809    2811    2813    2812    2814    2816    2815    2817
    2819    2818    2820    2822    2821    2823    2825    2824    2826
    2828    2827    2829    2831    2830    2832    2834    2833    2835
    2837    2836    2838    2840    2839    2841    2843    2842    2844
    2846    2845    2847    2849    2848    2850    2852    2851    2853
    2855    2854    2856    2858    2857    2859    2861    2860    2862
    2864    2863    2865    2867    2866    2868    2870    2869    2871
    2873    2872    2874    2876    2875    2877    2879    2878    2880
    2882    2881    2883    2885    2884    2886    2888    2887    2889
    2891    2890    2892    2894    2893    2895    2897    2896    2898
    2900    2899    2901    2903    2902    2904    2906    2905    2907
    2909    2908    2910    2912    2911    2913    2915    2914    2916
    2918    2917    2919    2921    2920    2922    2924    2923    2925
    2927    2926    2928    2930    2929    2931    2933    2932    2934
    2936    2935    2937    2939    2938    2940    2942    2941    2943
    2945    2944    2946    2948    2947    2949    2951    2950    2952
    2954    2953    2955    2957    2956    2958    2960    2959    2961
    2963    2962    2964    2966    2965    2967    2969    2968    2970
    2972    2971    2973    2975    2974    2976    2978    2977    2979
    2981    2980    2982    2984    2983    2985    2987    2986    2988
    2990    2989    2991    2993    2992    2994    2996    2995    2997
    2999    2998    3000    3002    3001    3003    3005    3004    3006
    3008    3007    3009    3011    3010    3012    3014    3013    3015
    3017    3016    3018    3020    3019    3021    3023    3022    3024
    3026    3025    3027    3029    3028    3030    3032    3031    3033
    3035    3034    3036    3038    3037    3039    3041    3040    3042
    3044    3043    3045    3047    3046    3048    3050    3049    3051
    3053    3052    3054    3056    3055    3057    3059    3058    3060
    3062    3061    3063    3065    3064    3066    3068    3067    3069
    3071    3070    3072    3074    3073    3075    3077    3076    3078
    3080    3079    3081    3083    3082    3084    3086    3085    3087
    3089    3088    3090    3092    3091    3093    3095    3094    3096
    3098    3097    3099    3101    3100    3102    3104    3103    3105
    3107    3106    3108    3110    3109    3111    3113    3112    3114
    3116    3115    3117    3119    3118    3120    3122    3121    3123
    3125    3124    3126    3128    3127    3129    3131    3130    3132
    3134    3133    3135    3137    3136    3138    3140    3139    3141
    3143    3142    3144    3146    3145    3147    3149    3148    3150
    3152    3151    3153    3155    3154    3156    3158    3157    3159
    3161    3160    3162    3164    3163    3165    3167    3166    3168
    3170    3169    3171    3173    3172    3174    3176    3175    3177
    3179    3178    3180    3182    3181    3183    3185    3184    3186
    3188    3187    3189    3191    3190    3192    3194    3193    3195
    3197    3196    3198    3200    3199    3201    3203    3202    3204
    3206    3205    3207    3209    3208    3210    3212    3211    3213
    3215    3214    3216    3218    3217    3219    3221    3220    3222
    3224    3223    3225    3227    3226    3228    3230    3229    3231
    3233    3232    3234    3236    3235    3237    3239    3238    3240
    3242    3241    3243    3245    3244    3246    3248    3247    3249
    3251    3250    3252    3254    3253    3255    3257    3256    3258
    3260    3259    3261    3263    3262    3264    3266    3265    3267
    3269    3268    3270    3272    3271    3273    3275    3274    3276
    3278    3277    3279    3281    3280    3282    3284    3283    3285
    3287    3286    3288    3290    3289    3291    3293    3292    3294
    3296    3295    3297    3299    3298    3300    3302    3301    3303
    3305    3304    3306    3308    3307    3309    3311    3310    3312
    3314    3313    3315    3317    3316    3318    3320    3319    3321
    3323    3322    3324    3326    3325    3327    3329    3328    3330
    3332    3331    3333    3335    3334    3336    3338    3337    3339
    3341    3340    3342    3344    3343    3345    3347    3346    3348
    3350    3349    3351    3353    3352    3354    3356    3355    3357
    3359    3358    3360    3362    3361    3363    3365    3364    3366
    3368    3367    3369    3371    3370    3372    3374    3373    3375
    3377    3376    3378    3380    3379    3381    3383    3382    3384
    3386    3385    3387    3389    3388    3390    3392    3391    3393
    3395    3394    3396    3398    3397    3399    3401    3400    3402
    3404    3403    3405    3407    3406    3408    3410    3409    3411
    3413    3412    3414    3416    3415    3417    3419    3418    3420
    3422    3421    3423    3425    3424    3426    3428    3427    3429
    3431    3430    3432    3434    3433    3435    3437    3436    3438
    3440    3439    3441    3443    3442    3444    3446    3445    3447
    3449    3448    3450    3452    3451    3453    3455    3454    3456
    3458    3457    3459    3461    3460    3462    3464    3463    3465
    3467    3466    3468    3470    3469    3471    3473    3472    3474
    3476    3475    3477    3479    3478    3480    3482    3481    3483
    3485    3484    3486    3488    3487    3489    3491    3490    3492
    3494    3493    3495    3497    3496    3498    3500    3499    3501
    3503    3502    3504    3506    3505    3507    3509    3508    3510
    3512    3511    3513    3515    3514    3516    3518    3517    3519
    3521    3520    3522    3524    3523    3525    3527    3526    3528
    3530    3529    3531    3533    3532    3534    3536    3535    3537
    3539    3538    3540    3542    3541    3543    3545    3544    3546
    3548    3547    3549    3551    3550    3552    3554    3553    3555
    3557    3556    3558    3560    3559    3561    3563    3562    3564
    3566    3565    3567    3569    3568    3570    3572    3571    3573
    3575    3574    3576    3578    3577    3579    3581    3580    3582
    3584    3583    3585    3587    3586    3588    3590    3589    3591
    3593    3592    3594    3596    3595    3597    3599    3598    3600
    3602    3601    3603    3605    3604    3606    3608    3607    3609
    3611    3610    3612    3614    3613    3615    3617    3616    3618
    3620    3619    3621    3623    3622    3624    3626    3625    3627
    3629    3628    3630    3632    3631    3633    3635    3634    3636
    3638    3637    3639    3641    3640    3642    3644    3643    3645
    3647    3646    3648    3650    3649    3651    3653    3652    3654
    3656    3655    3657    3659    3658    3660    3662    3661    3663
    3665    3664    3666    3668    3667    3669    3671    3670    3672
    3674    3673    3675    3677    3676    3678    3680    3679    3681
    3683    3682    3684    3686    3685    3687    3689    3688    3690
    3692    3691    3693    3695    3694    3696    3698    3697    3699
    3701    3700    3702    3704    3703    3705    3707    3706    3708
    3710    3709    3711    3713    3712    3714    3716    3715    3717
    3719    3718    3720    3722    3721    3723    3725    3724    3726
    3728    3727    3729    3731    3730    3732    3734    3733    3735
    3737    3736    3738    3740    3739    3741    3743    3742    3744
    3746    3745    3747    3749    3748    3750    3752    3751    3753
    3755    3754    3756    3758    3757    3759    3761    3760    3762
    3764    3763    3765    3767    3766    3768    3770    3769    3771
    3773    3772    3774    3776    3775    3777    3779    3778    3780
    3782    3781    3783    3785    3784    3786    3788    3787    3789
    3791    3790    3792    3794    3793    3795    3797    3796    3798
    3800    3799    3801    3803    3802    3804    3806    3805    3807
    3809    3808    3810    3812    3811    3813    3815    3814    3816
    3818    3817    3819    3821    3820    3822    3824    3823    3825
    3827    3826    3828    3830    3829    3831    3833    3832    3834
    3836    3835    3837    3839    3838    3840    3842    3841    3843
    3845    3844    3846    3848    3847    3849    3851    3850    3852
    3854    3853    3855    3857    3856    3858    3860    3859    3861
    3863    3862    3864    3866    3865    3867    3869    3868    3870
    3872    3871    3873    3875    3874    3876    3878    3877    3879
    3881    3880    3882    3884    3883    3885    3887    3886    3888
    3890    3889    3891    3893    3892    3894    3896    3895    3897
    3899    3898    3900    3902    3901    3903    3905    3904    3906
    3908    3907    3909    3911    3910    3912    3914    3913    3915
    3917    3916    3918    3920    3919    3921    3923    3922    3924
    3926    3925    3927    3929    3928    3930    3932    3931    3933
    3935    3934    3936    3938    3937    3939    3941    3940    3942
    3944    3943    3945    3947    3946    3948    3950    3949    3951
    3953    3952    3954    3956    3955    3957    3959    3958    3960
    3962    3961    3963    3965    3964    3966    3968    3967    3969
    3971    3970    3972    3974    3973    3975    3977    3976    3978
    3980    3979    3981    3983    3982    3984    3986    3985    3987
    3989    3988    3990    3992    3991    3993    3995    3994    3996
    3998    3997    3999    4001    4000    4002    4004    4003    4005
    4007    4006    4008    4010    4009    4011    4013    4012    4014
    4016    4015    4017    4019    4018    4020    4022    4021    4023
    4025    4024    4026    4028    4027    4029    4031    4030    4032
    4034    4033    4035    4037    4036    4038    4040    4039    4041
    4043    4042    4044    4046    4045    4047    4049    4048    4050
    4052    4051    4053    4055    4054    4056    4058    4057    4059
    4061    4060    4062    4064    4063    4065    4067    4066    4068
    4070    4069    4071    4073    4072    4074    4076    4075    4077
    4079    4078    4080    4082    4081    4083    4085    4084    4086
    4088    4087    4089    4091    4090    4092    4094    4093    4095
    4097    4096    4098    4100    4099    4101    4103    4102    4104
    4106    4105    4107    4109    4108    4110    4112    4111    4113
    4115    4114    4116    4118    4117    4119    4121    4120    4122
    4124    4123    4125    4127    4126    4128    4130    4129    4131
    4133    4132    4134    4136    4135    4137    4139    4138    4140
    4142    4141    4143    4145    4144    4146    4148    4147    4149
    4151    4150    4152    4154    4153    4155    4157    4156    4158
    4160    4159    4161    4163    4162    4164    4166    4165    4167
    4169    4168    4170    4172    4171    4173    4175    4174    4176
    4178    4177    4179    4181    4180    4182    4184    4183    4185
    4187    4186    4188    4190    4189    4191    4193    4192    4194
    4196    4195    4197    4199    4198    4200    4202    4201    4203
    4205    4204    4206    4208    4207    4209    4211    4210    4212
    4214    4213    4215    4217    4216    4218    4220    4219    4221
    4223    4222    4224    4226    4225    4227    4229    4228    4230
    4232    4231    4233    4235    4234    4236    4238    4237    4239
    4241    4240    4242    4244    4243    4245    4247    4246    4248
    4250    4249    4251    4253    4252    4254    4256    4255    4257
    4259    4258    4260    4262    4261    4263    4265    4264    4266
    4268    4267    4269    4271    4270    4272    4274    4273    4275
    4277    4276    4278    4280    4279    4281    4283    4282    4284
    4286    4285    4287    4289    4288    4290    4292    4291    4293
    4295    4294    4296    4298    4297    4299    4301    4300    4302
    4304    4303    4305    4307    4306    4308    4310    4309    4311
    4313    4312    4314    4316    4315    4317    4319    4318    4320
    4322    4321    4323    4325    4324    4326    4328    4327    4329
    4331    4330    4332    4334    4333    4335    4337    4336    4338
    4340    4339    4341    4343    4342    4344    4346    4345    4347
    4349    4348    4350    4352    4351    4353    4355    4354    4356
    4358    4357    4359    4361    4360    4362    4364    4363    4365
    4367    4366    4368    4370    4369    4371    4373    4372    4374
    4376    4375    4377    4379    4378    4380    4382    4381    4383
    4385    4384    4386    4388    4387    4389    4391    4390    4392
    4394    4393    4395    4397    4396    4398    4400    4399    4401
    4403    4402    4404    4406    4405    4407    4409    4408    4410
    4412    4411    4413    4415    4414    4416    4418    4417    4419
    4421    4420    4422    4424    4423    4425    4427    4426    4428
    4430    4429    4431    4433    4432    4434    4436    4435    4437
    4439    4438    4440    4442    4441    4443    4445    4444    4446
    4448    4447    4449    4451    4450    4452    4454    4453    4455
    4457    4456    4458    4460    4459    4461    4463    4462    4464
    4466    4465    4467    4469    4468    4470    4472    4471    4473
    4475    4474    4476    4478    4477    4479    4481    4480    4482
    4484    4483    4485    4487    4486    4488    4490    4489    4491
    4493    4492    4494    4496    4495    4497    4499    4498    4500
    4502    4501    4503    4505    4504    4506    4508    4507    4509
    4511    4510    4512    4514    4513    4515    4517    4516    4518
    4520    4519    4521    4523    4522    4524    4526    4525    4527
    4529    4528    4530    4532    4531    4533    4535    4534    4536
    4538    4537    4539    4541    4540    4542    4544    4543    4545
    4547    4546    4548    4550    4549    4551    4553    4552    4554
    4556    4555    4557    4559    4558    4560    4562    4561    4563
    4565    4564    4566    4568    4567    4569    4571    4570    4572
    4574    4573    4575    4577    4576    4578    4580    4579    4581
    4583    4582    4584    4586    4585    4587    4589    4588    4590
    4592    4591    4593    4595    4594    4596    4598    4597    4599
    4601    4600    4602    4604    4603    4605    4607    4606    4608
    4610    4609    4611    4613    4612    4614    4616    4615    4617
    4619    4618    4620    4622    4621    4623    4625    4624    4626
    4628    4627    4629    4631    4630    4632    4634    4633    4635
    4637    4636    4638    4640    4639    4641    4643    4642    4644
    4646    4645    4647    4649    4648    4650    4652    4651    4653
    4655    4654    4656    4658    4657    4659    4661    4660    4662
    4664    4663    4665    4667    4666    4668    4670    4669    4671
    4673    4672    4674    4676    4675    4677    4679    4678    4680
    4682    4681    4683    4685    4684    4686    4688    4687    4689
    4691    4690    4692    4694    4693    4695    4697    4696    4698
    4700    4699    4701    4703    4702    4704    4706    4705    4707
    4709    4708    4710    4712    4711    4713    4715    4714    4716
    4718    4717    4719    4721    4720    4722    4724    4723    4725
    4727    4726    4728    4730    4729    4731    4733    4732    4734
    4736    4735    4737    4739    4738    4740    4742    4741    4743
    4745    4744    4746    4748    4747    4749    4751    4750    4752
    4754    4753    4755    4757    4756    4758    4760    4759    4761
    4763    4762    4764    4766    4765    4767    4769    4768    4770
    4772    4771    4773    4775    4774    4776    4778    4777    4779
    4781    4780    4782    4784    4783    4785    4787    4786    4788
    4790    4789    4791    4793    4792    4794    4796    4795    4797
    4799    4798    4800    4802    4801    4803    4805    4804    4806
    4808    4807    4809    4811    4810    4812    4814    4813    4815
    4817    4816    4818    4820    4819    4821    4823    4822    4824
    4826    4825    4827    4829    4828    4830    4832    4831    4833
    4835    4834    4836    4838    4837    4839    4841    4840    4842
    4844    4843    4845    4847    4846    4848    4850    4849    4851
    4853    4852    4854    4856    4855    4857    4859    4858    4860
    4862    4861    4863    4865    4864    4866    4868    4867    4869
    4871    4870    4872    4874    4873    4875    4877    4876    4878
    4880    4879    4881    4883    4882    4884    4886    4885    4887
    4889    4888    4890    4892    4891    4893    4895    4894    4896
    4898    4897    4899    4901    4900    4902    4904    4903    4905
    4907    4906    4908    4910    4909    4911    4913    4912    4914
    4916    4915    4917    4919    4918    4920    4922    4921    4923
    4925    4924    4926    4928    4927    4929    4931    4930    4932
    4934    4933    4935    4937    4936    4938    4940    4939    4941
    4943    4942    4944    4946    4945    4947    4949    4948    4950
    4952    4951    4953    4955    4954    4956    4958    4957    4959
    4961    4960    4962    4964    4963    4965    4967    4966    4968
    4970    4969    4971    4973    4972    4974    4976    4975    4977
    4979    4978    4980    4982    4981    4983    4985    4984    4986
    4988    4987    4989    4991    4990    4992    4994    4993    4995
    4997    4996    4998    5000    4999    5001    5003    5002    5004
    5006    5005    5007    5009    5008    5010    5012    5011    5013
    5015    5014    5016    5018    5017    5019    5021    5020    5022
    5024    5023    5025    5027    5026    5028    5030    5029    5031
    5033    5032    5034    5036    5035    5037    5039    5038    5040
    5042    5041    5043    5045    5044    5046    5048    5047    5049
    5051    5050    5052    5054    5053    5055    5057    5056    5058
    5060    5059    5061    5063    5062    5064    5066    5065    5067
    5069    5068    5070    5072    5071    5073    5075    5074    5076
    5078    5077    5079    5081    5080    5082    5084    5083    5085
    5087    5086    5088    5090    5089    5091    5093    5092    5094
    5096    5095    5097    5099    5098    5100    5102    5101    5103
    5105    5104    5106    5108    5107    5109    5111    5110    5112
    5114    5113    5115    5117    5116    5118    5120    5119    5121
    5123    5122    5124    5126    5125    5127    5129    5128    5130
    5132    5131    5133    5135    5134    5136    5138    5137    5139
    5141    5140    5142    5144    5143    5145    5147    5146    5148
    5150    5149    5151    5153    5152    5154    5156    5155    5157
    5159    5158    5160    5162    5161    5163    5165    5164    5166
    5168    5167    5169    5171    5170    5172    5174    5173    5175
    5177    5176    5178    5180    5179    5181    5183    5182    5184
    5186    5185    5187    5189    5188    5190    5192    5191    5193
    5195    5194    5196    5198    5197    5199    5201    5200    5202
    5204    5203    5205    5207    5206    5208    5210    5209    5211
    5213    5212    5214    5216    5215    5217    5219    5218    5220
    5222    5221    5223    5225    5224    5226    5228    5227    5229
    5231    5230    5232    5234    5233    5235    5237    5236    5238
    5240    5239    5241    5243    5242    5244    5246    5245    5247
    5249    5248    5250    5252    5251    5253    5255    5254    5256
    5258    5257    5259    5261    5260    5262    5264    5263    5265
    5267    5266    5268    5270    5269    5271    5273    5272    5274
    5276    5275    5277    5279    5278    5280    5282    5281    5283
    5285    5284    5286    5288    5287    5289    5291    5290    5292
    5294    5293    5295    5297    5296    5298    5300    5299    5301
    5303    5302    5304    5306    5305    5307    5309    5308    5310
    5312    5311    5313    5315    5314    5316    5318    5317    5319
    5321    5320    5322    5324    5323    5325    5327    5326    5328
    5330    5329    5331    5333    5332    5334    5336    5335    5337
    5339    5338    5340    5342    5341    5343    5345    5344    5346
    5348    5347    5349    5351    5350    5352    5354    5353    5355
    5357    5356    5358    5360    5359    5361    5363    5362    5364
    5366    5365    5367    5369    5368    5370    5372    5371    5373
    5375    5374    5376    5378    5377    5379    5381    5380    5382
    5384    5383    5385    5387    5386    5388    5390    5389    5391
    5393    5392    5394    5396    5395    5397    5399    5398    5400
    5402    5401    5403    5405    5404    5406    5408    5407    5409
    5411    5410    5412    5414    5413    5415    5417    5416    5418
    5420    5419    5421    5423    5422    5424    5426    5425    5427
    5429    5428    5430    5432    5431    5433    5435    5434    5436
    5438    5437    5439    5441    5440    5442    5444    5443    5445
    5447    5446    5448    5450    5449    5451    5453    5452    5454
    5456    5455    5457    5459    5458    5460    5462    5461    5463
    5465    5464    5466    5468    5467    5469    5471    5470    5472
    5474    5473    5475    5477    5476    5478    5480    5479    5481
    5483    5482    5484    5486    5485    5487    5489    5488    5490
    5492    5491    5493    5495    5494    5496    5498    5497    5499
    5501    5500    5502    5504    5503    5505    5507    5506    5508
    5510    5509    5511    5513    5512    5514    5516    5515    5517
    5519    5518    5520    5522    5521    5523    5525    5524    5526
    5528    5527    5529    5531    5530    5532    5534    5533    5535
    5537    5536    5538    5540    5539    5541    5543    5542    5544
    5546    5545    5547    5549    5548    5550    5552    5551    5553
    5555    5554    5556    5558    5557    5559    5561    5560    5562
    5564    5563    5565    5567    5566    5568    5570    5569    5571
    5573    5572    5574    5576    5575    5577    5579    5578    5580
    5582    5581    5583    5585    5584    5586    5588    5587    5589
    5591    5590    5592    5594    5593    5595    5597    5596    5598
    5600    5599    5601    5603    5602    5604    5606    5605    5607
    5609    5608    5610    5612    5611    5613    5615    5614    5616
    5618    5617    5619    5621    5620    5622    5624    5623    5625
    5627    5626    5628    5630    5629    5631    5633    5632    5634
    5636    5635    5637    5639    5638    5640    5642    5641    5643
    5645    5644    5646    5648    5647    5649    5651    5650    5652
    5654    5653    5655    5657    5656    5658    5660    5659    5661
    5663    5662    5664    5666    5665    5667    5669    5668    5670
    5672    5671    5673    5675    5674    5676    5678    5677    5679
    5681    5680    5682    5684    5683    5685    5687    5686    5688
    5690    5689    5691    5693    5692    5694    5696    5695    5697
    5699    5698    5700    5702    5701    5703    5705    5704    5706
    5708    5707    5709    5711    5710    5712    5714    5713    5715
    5717    5716    5718    5720    5719    5721    5723    5722    5724
    5726    5725    5727    5729    5728    5730    5732    5731    5733
    5735    5734    5736    5738    5737    5739    5741    5740    5742
    5744    5743    5745    5747    5746    5748    5750    5749    5751
    5753    5752    5754    5756    5755    5757    5759    5758    5760
    5762    5761    5763    5765    5764    5766    5768    5767    5769
    5771    5770    5772    5774    5773    5775    5777    5776    5778
    5780    5779    5781    5783    5782    5784    5786    5785    5787
    5789    5788    5790    5792    5791    5793    5795    5794    5796
    5798    5797    5799    5801    5800    5802    5804    5803    5805
    5807    5806    5808    5810    5809    5811    5813    5812    5814
    5816    5815    5817    5819    5818    5820    5822    5821    5823
    5825    5824    5826    5828    5827    5829    5831    5830    5832
    5834    5833    5835    5837    5836    5838    5840    5839    5841
    5843    5842    5844    5846    5845    5847    5849    5848    5850
    5852    5851    5853    5855    5854    5856    5858    5857    5859
    5861    5860    5862    5864    5863    5865    5867    5866    5868
    5870    5869    5871    5873    5872    5874    5876    5875    5877
    5879    5878    5880    5882    5881    5883    5885    5884    5886
    5888    5887    5889    5891    5890    5892    5894    5893    5895
    5897    5896    5898    5900    5899    5901    5903    5902    5904
    5906    5905    5907    5909    5908    5910    5912    5911    5913
    5915    5914    5916    5918    5917    5919    5921    5920    5922
    5924    5923    5925    5927    5926    5928    5930    5929    5931
    5933    5932    5934    5936    5935    5937    5939    5938    5940
    5942    5941    5943    5945    5944    5946    5948    5947    5949
    5951    5950    5952    5954    5953    5955    5957    5956    5958
    5960    5959    5961    5963    5962    5964    5966    5965    5967
    5969    5968    5970    5972    5971    5973    5975    5974    5976
    5978    5977    5979    5981    5980    5982    5984    5983    5985
    5987    5986    5988    5990    5989    5991    5993    5992    5994
    5996    5995    5997    5999    5998    6000    6002    6001    6003
    6005    6004    6006    6008    6007    6009    6011    6010    6012
    6014    6013    6015    6017    6016    6018    6020    6019    6021
    6023    6022    6024    6026    6025    6027    6029    6028    6030
    6032    6031    6033    6035    6034    6036    6038    6037    6039
    6041    6040    6042    6044    6043    6045    6047    6046    6048
    6050    6049    6051    6053    6052    6054    6056    6055    6057
    6059    6058    6060    6062    6061    6063    6065    6064    6066
    6068    6067    6069    6071    6070    6072    6074    6073    6075
    6077    6076    6078    6080    6079    6081    6083    6082    6084
    6086    6085    6087    6089    6088    6090    6092    6091    6093
    6095    6094    6096    6098    6097    6099    6101    6100    6102
    6104    6103    6105    6107    6106    6108    6110    6109    6111
    6113    6112    6114    6116    6115    6117    6119    6118    6120
    6122    6121    6123    6125    6124    6126    6128    6127    6129
    6131    6130    6132    6134    6133    6135    6137    6136    6138
    6140    6139    6141    6143    6142    6144    6146    6145    6147
    6149    6148    6150    6152    6151    6153    6155    6154    6156
    6158    6157    6159    6161    6160    6162    6164    6163    6165
    6167    6166    6168    6170    6169    6171    6173    6172    6174
    6176    6175    6177    6179    6178    6180    6182    6181    6183
    6185    6184    6186    6188    6187    6189    6191    6190    6192
    6194    6193    6195    6197    6196    6198    6200    6199    6201
    6203    6202    6204    6206    6205    6207    6209    6208    6210
    6212    6211    6213    6215    6214    6216    6218    6217    6219
    6221    6220    6222    6224    6223    6225    6227    6226    6228
    6230    6229    6231    6233    6232    6234    6236    6235    6237
    6239    6238    6240    6242    6241    6243    6245    6244    6246
    6248    6247    6249    6251    6250    6252    6254    6253    6255
    6257    6256    6258    6260    6259    6261    6263    6262    6264
    6266    6265    6267    6269    6268    6270    6272    6271    6273
    6275    6274    6276    6278    6277    6279    6281    6280    6282
    6284    6283    6285    6287    6286    6288    6290    6289    6291
    6293    6292    6294    6296    6295    6297    6299    6298    6300
    6302    6301    6303    6305    6304    6306    6308    6307    6309
    6311    6310    6312    6314    6313    6315    6317    6316    6318
    6320    6319    6321    6323    6322    6324    6326    6325    6327
    6329    6328    6330    6332    6331    6333    6335    6334    6336
    6338    6337    6339    6341    6340    6342    6344    6343    6345
    6347    6346    6348    6350    6349    6351    6353    6352    6354
    6356    6355    6357    6359    6358    6360    6362    6361    6363
    6365    6364    6366    6368    6367    6369    6371    6370    6372
    6374    6373    6375    6377    6376    6378    6380    6379    6381
    6383    6382    6384    6386    6385    6387    6389    6388    6390
    6392    6391    6393    6395    6394    6396    6398    6397    6399
    6401    6400    6402    6404    6403    6405    6407    6406    6408
    6410    6409    6411    6413    6412    6414    6416    6415    6417
    6419    6418    6420    6422    6421    6423    6425    6424    6426
    6428    6427    6429    6431    6430    6432    6434    6433    6435
    6437    6436    6438    6440    6439    6441    6443    6442    6444
    6446    6445    6447    6449    6448    6450    6452    6451    6453
    6455    6454    6456    6458    6457    6459    6461    6460    6462
    6464    6463    6465    6467    6466    6468    6470    6469    6471
    6473    6472    6474    6476    6475    6477    6479    6478    6480
    6482    6481    6483    6485    6484    6486    6488    6487    6489
    6491    6490    6492    6494    6493    6495    6497    6496    6498
    6500    6499    6501    6503    6502    6504    6506    6505    6507
    6509    6508    6510    6512    6511    6513    6515    6514    6516
    6518    6517    6519    6521    6520    6522    6524    6523    6525
    6527    6526    6528    6530    6529    6531    6533    6532    6534
    6536    6535    6537    6539    6538    6540    6542    6541    6543
    6545    6544    6546    6548    6547    6549    6551    6550    6552
    6554    6553    6555    6557    6556    6558    6560    6559    6561
    6563    6562    6564    6566    6565    6567    6569    6568    6570
    6572    6571    6573    6575    6574    6576    6578    6577    6579
    6581    6580    6582    6584    6583    6585    6587    6586    6588
    6590    6589    6591    6593    6592    6594    6596    6595    6597
    6599    6598    6600    6602    6601    6603    6605    6604    6606
    6608    6607    6609    6611    6610    6612    6614    6613    6615
    6617    6616    6618    6620    6619    6621    6623    6622    6624
    6626    6625    6627    6629    6628    6630    6632    6631    6633
    6635    6634    6636    6638    6637    6639    6641    6640    6642
    6644    6643    6645    6647    6646    6648    6650    6649    6651
    6653    6652    6654    6656    6655    6657    6659    6658    6660
    6662    6661    6663    6665    6664    6666    6668    6667    6669
    6671    6670    6672    6674    6673    6675    6677    6676    6678
    6680    6679    6681    6683    6682    6684    6686    6685    6687
    6689    6688    6690    6692    6691    6693    6695    6694    6696
    6698    6697    6699    6701    6700    6702    6704    6703    6705
    6707    6706    6708    6710    6709    6711    6713    6712    6714
    6716    6715    6717    6719    6718    6720    6722    6721    6723
    6725    6724    6726    6728    6727    6729    6731    6730    6732
    6734    6733    6735    6737    6736    6738    6740    6739    6741
    6743    6742    6744    6746    6745    6747    6749    6748    6750
    6752    6751    6753    6755    6754    6756    6758    6757    6759
    6761    6760    6762    6764    6763    6765    6767    6766    6768
    6770    6769    6771    6773    6772    6774    6776    6775    6777
    6779    6778    6780    6782    6781    6783    6785    6784    6786
    6788    6787    6789    6791    6790    6792    6794    6793    6795
    6797    6796    6798    6800    6799    6801    6803    6802    6804
    6806    6805    6807    6809    6808    6810    6812    6811    6813
    6815    6814    6816    6818    6817    6819    6821    6820    6822
    6824    6823    6825    6827    6826    6828    6830    6829    6831
    6833    6832    6834    6836    6835    6837    6839    6838    6840
    6842    6841    6843    6845    6844    6846    6848    6847    6849
    6851    6850    6852    6854    6853    6855    6857    6856    6858
    6860    6859    6861    6863    6862    6864    6866    6865    6867
    6869    6868    6870    6872    6871    6873    6875    6874    6876
    6878    6877    6879    6881    6880    6882    6884    6883    6885
    6887    6886    6888    6890    6889    6891    6893    6892    6894
    6896    6895    6897    6899    6898    6900    6902    6901    6903
    6905    6904    6906    6908    6907    6909    6911    6910    6912
    6914    6913    6915    6917    6916    6918    6920    6919    6921
    6923    6922    6924    6926    6925    6927    6929    6928    6930
    6932    6931    6933    6935    6934    6936    6938    6937    6939
    6941    6940    6942    6944    6943    6945    6947    6946    6948
    6950    6949    6951    6953    6952    6954    6956    6955    6957
    6959    6958    6960    6962    6961    6963    6965    6964    6966
    6968    6967    6969    6971    6970    6972    6974    6973    6975
    6977    6976    6978    6980    6979    6981    6983    6982    6984
    6986    6985    6987    6989    6988    6990    6992    6991    6993
    6995    6994    6996    6998    6997    6999    7001    7000    7002
    7004    7003    7005    7007    7006    7008    7010    7009    7011
    7013    7012    7014    7016    7015    7017    7019    7018    7020
    7022    7021    7023    7025    7024    7026    7028    7027    7029
    7031    7030    7032    7034    7033    7035    7037    7036    7038
    7040    7039    7041    7043    7042    7044    7046    7045    7047
    7049    7048    7050    7052    7051    7053    7055    7054    7056
    7058    7057    7059    7061    7060    7062    7064    7063    7065
    7067    7066    7068    7070    7069    7071    7073    7072    7074
    7076    7075    7077    7079    7078    7080    7082    7081    7083
    7085    7084    7086    7088    7087    7089    7091    7090    7092
    7094    7093    7095    7097    7096    7098    7100    7099    7101
    7103    7102    7104    7106    7105    7107    7109    7108    7110
    7112    7111    7113    7115    7114    7116    7118    7117    7119
    7121    7120    7122    7124    7123    7125    7127    7126    7128
    7130    7129    7131    7133    7132    7134    7136    7135    7137
    7139    7138    7140    7142    7141    7143    7145    7144    7146
    7148    7147    7149    7151    7150    7152    7154    7153    7155
    7157    7156    7158    7160    7159    7161    7163    7162    7164
    7166    7165    7167    7169    7168    7170    7172    7171    7173
    7175    7174    7176    7178    7177    7179    7181    7180    7182
    7184    7183    7185    7187    7186    7188    7190    7189    7191
    7193    7192    7194    7196    7195    7197    7199    7198    7200
    7202    7201    7203    7205    7204    7206    7208    7207    7209
    7211    7210    7212    7214    7213    7215    7217    7216    7218
    7220    7219    7221    7223    7222    7224    7226    7225    7227
    7229    7228    7230    7232    7231    7233    7235    7234    7236
    7238    7237    7239    7241    7240    7242    7244    7243    7245
    7247    7246    7248    7250    7249    7251    7253    7252    7254
    7256    7255    7257    7259    7258    7260    7262    7261    7263
    7265    7264    7266    7268    7267    7269    7271    7270    7272
    7274    7273    7275    7277    7276    7278    7280    7279    7281
    7283    7282    7284    7286    7285    7287    7289    7288    7290
    7292    7291    7293    7295    7294    7296    7298    7297    7299
    7301    7300    7302    7304    7303    7305    7307    7306    7308
    7310    7309    7311    7313    7312    7314    7316    7315    7317
    7319    7318    7320    7322    7321    7323    7325    7324    7326
    7328    7327    7329    7331    7330    7332    7334    7333    7335
    7337    7336    7338    7340    7339    7341    7343    7342    7344
    7346    7345    7347    7349    7348    7350    7352    7351    7353
    7355    7354    7356    7358    7357    7359    7361    7360    7362
    7364    7363    7365    7367    7366    7368    7370    7369    7371
    7373    7372    7374    7376    7375    7377    7379    7378    7380
    7382    7381    7383    7385    7384    7386    7388    7387    7389
    7391    7390    7392    7394    7393    7395    7397    7396    7398
    7400    7399    7401    7403    7402    7404    7406    7405    7407
    7409    7408    7410    7412    7411    7413    7415    7414    7416
    7418    7417    7419    7421    7420    7422    7424    7423    7425
    7427    7426    7428    7430    7429    7431    7433    7432    7434
    7436    7435    7437    7439    7438    7440    7442    7441    7443
    7445    7444    7446    7448    7447    7449    7451    7450    7452
    7454    7453    7455    7457    7456    7458    7460    7459    7461
    7463    7462    7464    7466    7465    7467    7469    7468    7470
    7472    7471    7473    7475    7474    7476    7478    7477    7479
    7481    7480    7482    7484    7483    7485    7487    7486    7488
    7490    7489    7491    7493    7492    7494    7496    7495    7497
    7499    7498    7500    7502    7501    7503    7505    7504    7506
    7508    7507    7509    7511    7510    7512    7514    7513    7515
    7517    7516    7518    7520    7519    7521    7523    7522    7524
    7526    7525    7527    7529    7528    7530    7532    7531    7533
    7535    7534    7536    7538    7537    7539    7541    7540    7542
    7544    7543    7545    7547    7546    7548    7550    7549    7551
    7553    7552    7554    7556    7555    7557    7559    7558    7560
    7562    7561    7563    7565    7564    7566    7568    7567    7569
    7571    7570    7572    7574    7573    7575    7577    7576    7578
    7580    7579    7581    7583    7582    7584    7586    7585    7587
    7589    7588    7590    7592    7591    7593    7595    7594    7596
    7598    7597    7599    7601    7600    7602    7604    7603    7605
    7607    7606    7608    7610    7609    7611    7613    7612    7614
    7616    7615    7617    7619    7618    7620    7622    7621    7623
    7625    7624    7626    7628    7627    7629    7631    7630    7632
    7634    7633    7635    7637    7636    7638    7640    7639    7641
    7643    7642    7644    7646    7645    7647    7649    7648    7650
    7652    7651    7653    7655    7654    7656    7658    7657    7659
    7661    7660    7662    7664    7663    7665    7667    7666    7668
    7670    7669    7671    7673    7672    7674    7676    7675    7677
    7679    7678    7680    7682    7681    7683    7685    7684    7686
    7688    7687    7689    7691    7690    7692    7694    7693    7695
    7697    7696    7698    7700    7699    7701    7703    7702    7704
    7706    7705    7707    7709    7708    7710    7712    7711    7713
    7715    7714    7716    7718    7717    7719    7721    7720    7722
    7724    7723    7725    7727    7726    7728    7730    7729    7731
    7733    7732    7734    7736    7735    7737    7739    7738    7740
    7742    7741    7743    7745    7744    7746    7748    7747    7749
    7751    7750    7752    7754    7753    7755    7757    7756    7758
    7760    7759    7761    7763    7762    7764    7766    7765    7767
    7769    7768    7770    7772    7771    7773    7775    7774    7776
    7778    7777    7779    7781    7780    7782    7784    7783    7785
    7787    7786    7788    7790    7789    7791    7793    7792    7794
    7796    7795    7797    7799    7798    7800    7802    7801    7803
    7805    7804    7806    7808    7807    7809    7811    7810    7812
    7814    7813    7815    7817    7816    7818    7820    7819    7821
    7823    7822    7824    7826    7825    7827    7829    7828    7830
    7832    7831    7833    7835    7834    7836    7838    7837    7839
    7841    7840    7842    7844    7843    7845    7847    7846    7848
    7850    7849    7851    7853    7852    7854    7856    7855    7857
    7859    7858    7860    7862    7861    7863    7865    7864    7866
    7868    7867    7869    7871    7870    7872    7874    7873    7875
    7877    7876    7878    7880    7879    7881    7883    7882    7884
    7886    7885    7887    7889    7888    7890    7892    7891    7893
    7895    7894    7896    7898    7897    7899    7901    7900    7902
    7904    7903    7905    7907    7906    7908    7910    7909    7911
    7913    7912    7914    7916    7915    7917    7919    7918    7920
    7922    7921    7923    7925    7924    7926    7928    7927    7929
    7931    7930    7932    7934    7933    7935    7937    7936    7938
    7940    7939    7941    7943    7942    7944    7946    7945    7947
    7949    7948    7950    7952    7951    7953    7955    7954    7956
    7958    7957    7959    7961    7960    7962    7964    7963    7965
    7967    7966    7968    7970    7969    7971    7973    7972    7974
    7976    7975    7977    7979    7978    7980    7982    7981    7983
    7985    7984    7986    7988    7987    7989    7991    7990    7992
    7994    7993    7995    7997    7996    7998    8000    7999    8001
    8003    8002    8004    8006    8005    8007    8009    8008    8010
    8012    8011    8013    8015    8014    8016    8018    8017    8019
    8021    8020    8022    8024    8023    8025    8027    8026    8028
    8030    8029    8031    8033    8032    8034    8036    8035    8037
    8039    8038    8040    8042    8041    8043    8045    8044    8046
    8048    8047    8049    8051    8050    8052    8054    8053    8055
    8057    8056    8058    8060    8059    8061    8063    8062    8064
    8066    8065    8067    8069    8068    8070    8072    8071    8073
    8075    8074    8076    8078    8077    8079    8081    8080    8082
    8084    8083    8085    8087    8086    8088    8090    8089    8091
    8093    8092    8094    8096    8095    8097    8099    8098    8100
    8102    8101    8103    8105    8104    8106    8108    8107    8109
    8111    8110    8112    8114    8113    8115    8117    8116    8118
    8120    8119    8121    8123    8122    8124    8126    8125    8127
    8129    8128    8130    8132    8131    8133    8135    8134    8136
    8138    8137    8139    8141    8140    8142    8144    8143    8145
    8147    8146    8148    8150    8149    8151    8153    8152    8154
    8156    8155    8157    8159    8158    8160    8162    8161    8163
    8165    8164    8166    8168    8167    8169    8171    8170    8172
    8174    8173    8175    8177    8176    8178    8180    8179    8181
    8183    8182    8184    8186    8185    8187    8189    8188    8190
    8192    8191    8193    8195    8194    8196    8198    8197    8199
    8201    8200    8202    8204    8203    8205    8207    8206    8208
    8210    8209    8211    8213    8212    8214    8216    8215    8217
    8219    8218    8220    8222    8221    8223    8225    8224    8226
    8228    8227    8229    8231    8230    8232    8234    8233    8235
    8237    8236    8238    8240    8239    8241    8243    8242    8244
    8246    8245    8247    8249    8248    8250    8252    8251    8253
    8255    8254    8256    8258    8257    8259    8261    8260    8262
    8264    8263    8265    8267    8266    8268    8270    8269    8271
    8273    8272    8274    8276    8275    8277    8279    8278    8280
    8282    8281    8283    8285    8284    8286    8288    8287    8289
    8291    8290    8292    8294    8293    8295    8297    8296    8298
    8300    8299    8301    8303    8302    8304    8306    8305    8307
    8309    8308    8310    8312    8311    8313    8315    8314    8316
    8318    8317    8319    8321    8320    8322    8324    8323    8325
    8327    8326    8328    8330    8329    8331    8333    8332    8334
    8336    8335    8337    8339    8338    8340    8342    8341    8343
    8345    8344    8346    8348    8347    8349    8351    8350    8352
    8354    8353    8355    8357    8356    8358    8360    8359    8361
    8363    8362    8364    8366    8365    8367    8369    8368    8370
    8372    8371    8373    8375    8374    8376    8378    8377    8379
    8381    8380    8382    8384    8383    8385    8387    8386    8388
    8390    8389    8391    8393    8392    8394    8396    8395    8397
    8399    8398    8400    8402    8401    8403    8405    8404    8406
    8408    8407    8409    8411    8410    8412    8414    8413    8415
    8417    8416    8418    8420    8419    8421    8423    8422    8424
    8426    8425    8427    8429    8428    8430    8432    8431    8433
    8435    8434    8436    8438    8437    8439    8441    8440    8442
    8444    8443    8445    8447    8446    8448    8450    8449    8451
    8453    8452    8454    8456    8455    8457    8459    8458    8460
    8462    8461    8463    8465    8464    8466    8468    8467    8469
    8471    8470    8472    8474    8473    8475    8477    8476    8478
    8480    8479    8481    8483    8482    8484    8486    8485    8487
    8489    8488    8490    8492    8491    8493    8495    8494    8496
    8498    8497    8499    8501    8500    8502    8504    8503    8505
    8507    8506    8508    8510    8509    8511    8513    8512    8514
    8516    8515    8517    8519    8518    8520    8522    8521    8523
    8525    8524    8526    8528    8527    8529    8531    8530    8532
    8534    8533    8535    8537    8536    8538    8540    8539    8541
    8543    8542    8544    8546    8545    8547    8549    8548    8550
    8552    8551    8553    8555    8554    8556    8558    8557    8559
    8561    8560    8562    8564    8563    8565    8567    8566    8568
    8570    8569    8571    8573    8572    8574    8576    8575    8577
    8579    8578    8580    8582    8581    8583    8585    8584    8586
    8588    8587    8589    8591    8590    8592    8594    8593    8595
    8597    8596    8598    8600    8599    8601    8603    8602    8604
    8606    8605    8607    8609    8608    8610    8612    8611    8613
    8615    8614    8616    8618    8617    8619    8621    8620    8622
    8624    8623    8625    8627    8626    8628    8630    8629    8631
    8633    8632    8634    8636    8635    8637    8639    8638    8640
    8642    8641    8643    8645    8644    8646    8648    8647    8649
    8651    8650    8652    8654    8653    8655    8657    8656    8658
    8660    8659    8661    8663    8662    8664    8666    8665    8667
    8669    8668    8670    8672    8671    8673    8675    8674    8676
    8678    8677    8679    8681    8680    8682    8684    8683    8685
    8687    8686    8688    8690    8689    8691    8693    8692    8694
    8696    8695    8697    8699    8698    8700    8702    8701    8703
    8705    8704    8706    8708    8707    8709    8711    8710    8712
    8714    8713    8715    8717    8716    8718    8720    8719    8721
    8723    8722    8724    8726    8725    8727    8729    8728    8730
    8732    8731    8733    8735    8734    8736    8738    8737    8739
    8741    8740    8742    8744    8743    8745    8747    8746    8748
    8750    8749    8751    8753    8752    8754    8756    8755    8757
    8759    8758    8760    8762    8761    8763    8765    8764    8766
    8768    8767    8769    8771    8770    8772    8774    8773    8775
    8777    8776    8778    8780    8779    8781    8783    8782    8784
    8786    8785    8787    8789    8788    8790    8792    8791    8793
    8795    8794    8796    8798    8797    8799    8801    8800    8802
    8804    8803    8805    8807    8806    8808    8810    8809    8811
    8813    8812    8814    8816    8815    8817    8819    8818    8820
    8822    8821    8823    8825    8824    8826    8828    8827    8829
    8831    8830    8832    8834    8833    8835    8837    8836    8838
    8840    8839    8841    8843    8842    8844    8846    8845    8847
    8849    8848    8850    8852    8851    8853    8855    8854    8856
    8858    8857    8859    8861    8860    8862    8864    8863    8865
    8867    8866    8868    8870    8869    8871    8873    8872    8874
    8876    8875    8877    8879    8878    8880    8882    8881    8883
    8885    8884    8886    8888    8887    8889    8891    8890    8892
    8894    8893    8895    8897    8896    8898    8900    8899    8901
    8903    8902    8904    8906    8905    8907    8909    8908    8910
    8912    8911    8913    8915    8914    8916    8918    8917    8919
    8921    8920    8922    8924    8923    8925    8927    8926    8928
    8930    8929    8931    8933    8932    8934    8936    8935    8937
    8939    8938    8940    8942    8941    8943    8945    8944    8946
    8948    8947    8949    8951    8950    8952    8954    8953    8955
    8957    8956    8958    8960    8959    8961    8963    8962    8964
    8966    8965    8967    8969    8968    8970    8972    8971    8973
    8975    8974    8976    8978    8977    8979    8981    8980    8982
    8984    8983    8985    8987    8986    8988    8990    8989    8991
    8993    8992    8994    8996    8995    8997    8999    8998    9000
    9002    9001    9003    9005    9004    9006    9008    9007    9009
    9011    9010    9012    9014    9013    9015    9017    9016    9018
    9020    9019    9021    9023    9022    9024    9026    9025    9027
    9029    9028    9030    9032    9031    9033    9035    9034    9036
    9038    9037    9039    9041    9040    9042    9044    9043    9045
    9047    9046    9048    9050    9049    9051    9053    9052    9054
    9056    9055    9057    9059    9058    9060    9062    9061    9063
    9065    9064    9066    9068    9067    9069    9071    9070    9072
    9074    9073    9075    9077    9076    9078    9080    9079    9081
    9083    9082    9084    9086    9085    9087    9089    9088    9090
    9092    9091    9093    9095    9094    9096    9098    9097    9099
    9101    9100    9102    9104    9103    9105    9107    9106    9108
    9110    9109    9111    9113    9112    9114    9116    9115    9117
    9119    9118    9120    9122    9121    9123    9125    9124    9126
    9128    9127    9129    9131    9130    9132    9134    9133    9135
    9137    9136    9138    9140    9139    9141    9143    9142    9144
    9146    9145    9147    9149    9148    9150    9152    9151    9153
    9155    9154    9156    9158    9157    9159    9161    9160    9162
    9164    9163    9165    9167    9166    9168    9170    9169    9171
    9173    9172    9174    9176    9175    9177    9179    9178    9180
    9182    9181    9183    9185    9184    9186    9188    9187    9189
    9191    9190    9192    9194    9193    9195    9197    9196    9198
    9200    9199    9201    9203    9202    9204    9206    9205    9207
    9209    9208    9210    9212    9211    9213    9215    9214    9216
    9218    9217    9219    9221    9220    9222    9224    9223    9225
    9227    9226    9228    9230    9229    9231    9233    9232    9234
    9236    9235    9237    9239    9238    9240    9242    9241    9243
    9245    9244    9246    9248    9247    9249    9251    9250    9252
    9254    9253    9255    9257    9256    9258    9260    9259    9261
    9263    9262    9264    9266    9265    9267    9269    9268    9270
    9272    9271    9273    9275    9274    9276    9278    9277    9279
    9281    9280    9282    9284    9283    9285    9287    9286    9288
    9290    9289    9291    9293    9292    9294    9296    9295    9297
    9299    9298    9300    9302    9301    9303    9305    9304    9306
    9308    9307    9309    9311    9310    9312    9314    9313    9315
    9317    9316    9318    9320    9319    9321    9323    9322    9324
    9326    9325    9327    9329    9328    9330    9332    9331    9333
    9335    9334    9336    9338    9337    9339    9341    9340    9342
    9344    9343    9345    9347    9346    9348    9350    9349    9351
    9353    9352    9354    9356    9355    9357    9359    9358    9360
    9362    9361    9363    9365    9364    9366    9368    9367    9369
    9371    9370    9372    9374    9373    9375    9377    9376    9378
    9380    9379    9381    9383    9382    9384    9386    9385    9387
    9389    9388    9390    9392    9391    9393    9395    9394    9396
    9398    9397    9399    9401    9400    9402    9404    9403    9405
    9407    9406    9408    9410    9409    9411    9413    9412    9414
    9416    9415    9417    9419    9418    9420    9422    9421    9423
    9425    9424    9426    9428    9427    9429    9431    9430    9432
    9434    9433    9435    9437    9436    9438    9440    9439    9441
    9443    9442    9444    9446    9445    9447    9449    9448    9450
    9452    9451    9453    9455    9454    9456    9458    9457    9459
    9461    9460    9462    9464    9463    9465    9467    9466    9468
    9470    9469    9471    9473    9472    9474    9476    9475    9477
    9479    9478    9480    9482    9481    9483    9485    9484    9486
    9488    9487    9489    9491    9490    9492    9494    9493    9495
    9497    9496    9498    9500    9499    9501    9503    9502    9504
    9506    9505    9507    9509    9508    9510    9512    9511    9513
    9515    9514    9516    9518    9517    9519    9521    9520    9522
    9524    9523    9525    9527    9526    9528    9530    9529    9531
    9533    9532    9534    9536    9535    9537    9539    9538    9540
    9542    9541    9543    9545    9544    9546    9548    9547    9549
    9551    9550    9552    9554    9553    9555    9557    9556    9558
    9560    9559    9561    9563    9562    9564    9566    9565    9567
    9569    9568    9570    9572    9571    9573    9575    9574    9576
    9578    9577    9579    9581    9580    9582    9584    9583    9585
    9587    9586    9588    9590    9589    9591    9593    9592    9594
    9596    9595    9597    9599    9598    9600    9602    9601    9603
    9605    9604    9606    9608    9607    9609    9611    9610    9612
    9614    9613    9615    9617    9616    9618    9620    9619    9621
    9623    9622    9624    9626    9625    9627    9629    9628    9630
    9632    9631    9633    9635    9634    9636    9638    9637    9639
    9641    9640    9642    9644    9643    9645    9647    9646    9648
    9650    9649    9651    9653    9652    9654    9656    9655    9657
    9659    9658    9660    9662    9661    9663    9665    9664    9666
    9668    9667    9669    9671    9670    9672    9674    9673    9675
    9677    9676    9678    9680    9679    9681    9683    9682    9684
    9686    9685    9687    9689    9688    9690    9692    9691    9693
    9695    9694    9696    9698    9697    9699    9701    9700    9702
    9704    9703    9705    9707    9706    9708    9710    9709    9711
    9713    9712    9714    9716    9715    9717    9719    9718    9720
    9722    9721    9723    9725    9724    9726    9728    9727    9729
    9731    9730    9732    9734    9733    9735    9737    9736    9738
    9740    9739    9741    9743    9742    9744    9746    9745    9747
    9749    9748    9750    9752    9751    9753    9755    9754    9756
    9758    9757    9759    9761    9760    9762    9764    9763    9765
    9767    9766    9768    9770    9769    9771    9773    9772    9774
    9776    9775    9777    9779    9778    9780    9782    9781    9783
    9785    9784    9786    9788    9787    9789    9791    9790    9792
    9794    9793    9795    9797    9796    9798    9800    9799    9801
    9803    9802    9804    9806    9805    9807    9809    9808    9810
    9812    9811    9813    9815    9814    9816    9818    9817    9819
    9821    9820    9822    9824    9823    9825    9827    9826    9828
    9830    9829    9831    9833    9832    9834    9836    9835    9837
    9839    9838    9840    9842    9841    9843    9845    9844    9846
    9848    9847    9849    9851    9850    9852    9854    9853    9855
    9857    9856    9858    9860    9859    9861    9863    9862    9864
    9866    9865    9867    9869    9868    9870    9872    9871    9873
    9875    9874    9876    9878    9877    9879    9881    9880    9882
    9884    9883    9885    9887    9886    9888    9890    9889    9891
    9893    9892    9894    9896    9895    9897    9899    9898    9900
    9902    9901    9903    9905    9904    9906    9908    9907    9909
    9911    9910    9912    9914    9913    9915    9917    9916    9918
    9920    9919    9921    9923    9922    9924    9926    9925    9927
    9929    9928    9930    9932    9931    9933    9935    9934    9936
    9938    9937    9939    9941    9940    9942    9944    9943    9945
    9947    9946    9948    9950    9949    9951    9953    9952    9954
    9956    9955    9957    9959    9958    9960    9962    9961    9963
    9965    9964    9966    9968    9967    9969    9971    9970    9972
    9974    9973    9975    9977    9976    9978    9980    9979    9981
    9983    9982    9984    9986    9985    9987    9989    9988    9990
    9992    9991    9993    9995    9994    9996    9998    9997    9999
   10001   10000   10002   10004   10003   10005   10007   10006   10008
   10010   10009   10011   10013   10012   10014   10016   10015   10017
   10019   10018   10020   10022   10021   10023   10025   10024   10026
   10028   10027   10029   10031   10030   10032   10034   10033   10035
   10037   10036   10038   10040   10039   10041   10043   10042   10044
   10046   10045   10047   10049   10048   10050   10052   10051   10053
   10055   10054   10056   10058   10057   10059   10061   10060   10062
   10064   10063   10065   10067   10066   10068   10070   10069   10071
   10073   10072   10074   10076   10075   10077   10079   10078   10080
   10082   10081   10083   10085   10084   10086   10088   10087   10089
   10091   10090   10092   10094   10093   10095   10097   10096   10098
   10100   10099   10101   10103   10102   10104   10106   10105   10107
   10109   10108   10110   10112   10111   10113   10115   10114   10116
   10118   10117   10119   10121   10120   10122   10124   10123   10125
   10127   10126   10128   10130   10129   10131   10133   10132   10134
   10136   10135   10137   10139   10138   10140   10142   10141   10143
   10145   10144   10146   10148   10147   10149   10151   10150   10152
   10154   10153   10155   10157   10156   10158   10160   10159   10161
   10163   10162   10164   10166   10165   10167   10169   10168   10170
   10172   10171   10173   10175   10174   10176   10178   10177   10179
   10181   10180   10182   10184   10183   10185   10187   10186   10188
   10190   10189   10191   10193   10192   10194   10196   10195   10197
   10199   10198   10200   10202   10201   10203   10205   10204   10206
   10208   10207   10209   10211   10210   10212   10214   10213   10215
   10217   10216   10218   10220   10219   10221   10223   10222   10224
   10226   10225   10227   10229   10228   10230   10232   10231   10233
   10235   10234   10236   10238   10237   10239   10241   10240   10242
   10244   10243   10245   10247   10246   10248   10250   10249   10251
   10253   10252   10254   10256   10255   10257   10259   10258   10260
   10262   10261   10263   10265   10264   10266   10268   10267   10269
   10271   10270   10272   10274   10273   10275   10277   10276   10278
   10280   10279   10281   10283   10282   10284   10286   10285   10287
   10289   10288   10290   10292   10291   10293   10295   10294   10296
   10298   10297   10299   10301   10300   10302   10304   10303   10305
   10307   10306   10308   10310   10309   10311   10313   10312   10314
   10316   10315   10317   10319   10318   10320   10322   10321   10323
   10325   10324   10326   10328   10327   10329   10331   10330   10332
   10334   10333   10335   10337   10336   10338   10340   10339   10341
   10343   10342   10344   10346   10345   10347   10349   10348   10350
   10352   10351   10353   10355   10354   10356   10358   10357   10359
   10361   10360   10362   10364   10363   10365   10367   10366   10368
   10370   10369   10371   10373   10372   10374   10376   10375   10377
   10379   10378   10380   10382   10381   10383   10385   10384   10386
   10388   10387   10389   10391   10390   10392   10394   10393   10395
   10397   10396   10398   10400   10399   10401   10403   10402   10404
   10406   10405   10407   10409   10408   10410   10412   10411   10413
   10415   10414   10416   10418   10417   10419   10421   10420   10422
   10424   10423   10425   10427   10426   10428   10430   10429   10431
   10433   10432   10434   10436   10435   10437   10439   10438   10440
   10442   10441   10443   10445   10444   10446   10448   10447   10449
   10451   10450   10452   10454   10453   10455   10457   10456   10458
   10460   10459   10461   10463   10462   10464   10466   10465   10467
   10469   10468   10470   10472   10471   10473   10475   10474   10476
   10478   10477   10479   10481   10480   10482   10484   10483   10485
   10487   10486   10488   10490   10489   10491   10493   10492   10494
   10496   10495   10497   10499   10498   10500   10502   10501   10503
   10505   10504   10506   10508   10507   10509   10511   10510   10512
   10514   10513   10515   10517   10516   10518   10520   10519   10521
   10523   10522   10524   10526   10525   10527   10529   10528   10530
   10532   10531   10533   10535   10534   10536   10538   10537   10539
   10541   10540   10542   10544   10543   10545   10547   10546   10548
   10550   10549   10551   10553   10552   10554   10556   10555   10557
   10559   10558   10560   10562   10561   10563   10565   10564   10566
   10568   10567   10569   10571   10570   10572   10574   10573   10575
   10577   10576   10578   10580   10579   10581   10583   10582   10584
   10586   10585   10587   10589   10588   10590   10592   10591   10593
   10595   10594   10596   10598   10597   10599   10601   10600   10602
   10604   10603   10605   10607   10606   10608   10610   10609   10611
   10613   10612   10614   10616   10615   10617   10619   10618   10620
   10622   10621   10623   10625   10624   10626   10628   10627   10629
   10631   10630   10632   10634   10633   10635   10637   10636   10638
   10640   10639   10641   10643   10642   10644   10646   10645   10647
   10649   10648   10650   10652   10651   10653   10655   10654   10656
   10658   10657   10659   10661   10660   10662   10664   10663   10665
   10667   10666   10668   10670   10669   10671   10673   10672   10674
   10676   10675   10677   10679   10678   10680   10682   10681   10683
   10685   10684   10686   10688   10687   10689   10691   10690   10692
   10694   10693   10695   10697   10696   10698   10700   10699   10701
   10703   10702   10704   10706   10705   10707   10709   10708   10710
   10712   10711   10713   10715   10714   10716   10718   10717   10719
   10721   10720   10722   10724   10723   10725   10727   10726   10728
   10730   10729   10731   10733   10732   10734   10736   10735   10737
   10739   10738   10740   10742   10741   10743   10745   10744   10746
   10748   10747   10749   10751   10750   10752   10754   10753   10755
   10757   10756   10758   10760   10759   10761   10763   10762   10764
   10766   10765   10767   10769   10768   10770   10772   10771   10773
   10775   10774   10776   10778   10777   10779   10781   10780   10782
   10784   10783   10785   10787   10786   10788   10790   10789   10791
   10793   10792   10794   10796   10795   10797   10799   10798   10800
   10802   10801   10803   10805   10804   10806   10808   10807   10809
   10811   10810   10812   10814   10813   10815   10817   10816   10818
   10820   10819   10821   10823   10822   10824   10826   10825   10827
   10829   10828   10830   10832   10831   10833   10835   10834   10836
   10838   10837   10839   10841   10840   10842   10844   10843   10845
   10847   10846   10848   10850   10849   10851   10853   10852   10854
   10856   10855   10857   10859   10858   10860   10862   10861   10863
   10865   10864   10866   10868   10867   10869   10871   10870   10872
   10874   10873   10875   10877   10876   10878   10880   10879   10881
   10883   10882   10884   10886   10885   10887   10889   10888   10890
   10892   10891   10893   10895   10894   10896   10898   10897   10899
   10901   10900   10902   10904   10903   10905   10907   10906   10908
   10910   10909   10911   10913   10912   10914   10916   10915   10917
   10919   10918   10920   10922   10921   10923   10925   10924   10926
   10928   10927   10929   10931   10930   10932   10934   10933   10935
   10937   10936   10938   10940   10939   10941   10943   10942   10944
   10946   10945   10947   10949   10948   10950   10952   10951   10953
   10955   10954   10956   10958   10957   10959   10961   10960   10962
   10964   10963   10965   10967   10966   10968   10970   10969   10971
   10973   10972   10974   10976   10975   10977   10979   10978   10980
   10982   10981   10983   10985   10984   10986   10988   10987   10989
   10991   10990   10992   10994   10993   10995   10997   10996   10998
   11000   10999   11001   11003   11002   11004   11006   11005   11007
   11009   11008   11010   11012   11011   11013   11015   11014   11016
   11018   11017   11019   11021   11020   11022   11024   11023   11025
   11027   11026   11028   11030   11029   11031   11033   11032   11034
   11036   11035   11037   11039   11038   11040   11042   11041   11043
   11045   11044   11046   11048   11047   11049   11051   11050   11052
   11054   11053   11055   11057   11056   11058   11060   11059   11061
   11063   11062   11064   11066   11065   11067   11069   11068   11070
   11072   11071   11073   11075   11074   11076   11078   11077   11079
   11081   11080   11082   11084   11083   11085   11087   11086   11088
   11090   11089   11091   11093   11092   11094   11096   11095   11097
   11099   11098   11100   11102   11101   11103   11105   11104   11106
   11108   11107   11109   11111   11110   11112   11114   11113   11115
   11117   11116   11118   11120   11119   11121   11123   11122   11124
   11126   11125   11127   11129   11128   11130   11132   11131   11133
   11135   11134   11136   11138   11137   11139   11141   11140   11142
   11144   11143   11145   11147   11146   11148   11150   11149   11151
   11153   11152   11154   11156   11155   11157   11159   11158   11160
   11162   11161   11163   11165   11164   11166   11168   11167   11169
   11171   11170   11172   11174   11173   11175   11177   11176   11178
   11180   11179   11181   11183   11182   11184   11186   11185   11187
   11189   11188   11190   11192   11191   11193   11195   11194   11196
   11198   11197   11199   11201   11200   11202   11204   11203   11205
   11207   11206   11208   11210   11209   11211   11213   11212   11214
   11216   11215   11217   11219   11218   11220   11222   11221   11223
   11225   11224   11226   11228   11227   11229   11231   11230   11232
   11234   11233   11235   11237   11236   11238   11240   11239   11241
   11243   11242   11244   11246   11245   11247   11249   11248   11250
   11252   11251   11253   11255   11254   11256   11258   11257   11259
   11261   11260   11262   11264   11263   11265   11267   11266   11268
   11270   11269   11271   11273   11272   11274   11276   11275   11277
   11279   11278   11280   11282   11281   11283   11285   11284   11286
   11288   11287   11289   11291   11290   11292   11294   11293   11295
   11297   11296   11298   11300   11299   11301   11303   11302   11304
   11306   11305   11307   11309   11308   11310   11312   11311   11313
   11315   11314   11316   11318   11317   11319   11321   11320   11322
   11324   11323   11325   11327   11326   11328   11330   11329   11331
   11333   11332   11334   11336   11335   11337   11339   11338   11340
   11342   11341   11343   11345   11344   11346   11348   11347   11349
   11351   11350   11352   11354   11353   11355   11357   11356   11358
   11360   11359   11361   11363   11362   11364   11366   11365   11367
   11369   11368   11370   11372   11371   11373   11375   11374   11376
   11378   11377   11379   11381   11380   11382   11384   11383   11385
   11387   11386   11388   11390   11389   11391   11393   11392   11394
   11396   11395   11397   11399   11398   11400   11402   11401   11403
   11405   11404   11406   11408   11407   11409   11411   11410   11412
   11414   11413   11415   11417   11416   11418   11420   11419   11421
   11423   11422   11424   11426   11425   11427   11429   11428   11430
   11432   11431   11433   11435   11434   11436   11438   11437   11439
   11441   11440   11442   11444   11443   11445   11447   11446   11448
   11450   11449   11451   11453   11452   11454   11456   11455   11457
   11459   11458   11460   11462   11461   11463   11465   11464   11466
   11468   11467   11469   11471   11470   11472   11474   11473   11475
   11477   11476   11478   11480   11479   11481   11483   11482   11484
   11486   11485   11487   11489   11488   11490   11492   11491   11493
   11495   11494   11496   11498   11497   11499   11501   11500   11502
   11504   11503   11505   11507   11506   11508   11510   11509   11511
   11513   11512   11514   11516   11515   11517   11519   11518   11520
   11522   11521   11523   11525   11524   11526   11528   11527   11529
   11531   11530   11532   11534   11533   11535   11537   11536   11538
   11540   11539   11541   11543   11542   11544   11546   11545   11547
   11549   11548   11550   11552   11551   11553   11555   11554   11556
   11558   11557   11559   11561   11560   11562   11564   11563   11565
   11567   11566   11568   11570   11569   11571   11573   11572   11574
   11576   11575   11577   11579   11578   11580   11582   11581   11583
   11585   11584   11586   11588   11587   11589   11591   11590   11592
   11594   11593   11595   11597   11596   11598   11600   11599   11601
   11603   11602   11604   11606   11605   11607   11609   11608   11610
   11612   11611   11613   11615   11614   11616   11618   11617   11619
   11621   11620   11622   11624   11623   11625   11627   11626   11628
   11630   11629   11631   11633   11632   11634   11636   11635   11637
   11639   11638   11640   11642   11641   11643   11645   11644   11646
   11648   11647   11649   11651   11650   11652   11654   11653   11655
   11657   11656   11658   11660   11659   11661   11663   11662   11664
   11666   11665   11667   11669   11668   11670   11672   11671   11673
   11675   11674   11676   11678   11677   11679   11681   11680   11682
   11684   11683   11685   11687   11686   11688   11690   11689   11691
   11693   11692   11694   11696   11695   11697   11699   11698   11700
   11702   11701   11703   11705   11704   11706   11708   11707   11709
   11711   11710   11712   11714   11713   11715   11717   11716   11718
   11720   11719   11721   11723   11722   11724   11726   11725   11727
   11729   11728   11730   11732   11731   11733   11735   11734   11736
   11738   11737   11739   11741   11740   11742   11744   11743   11745
   11747   11746   11748   11750   11749   11751   11753   11752   11754
   11756   11755   11757   11759   11758   11760   11762   11761   11763
   11765   11764   11766   11768   11767   11769   11771   11770   11772
   11774   11773   11775   11777   11776   11778   11780   11779   11781
   11783   11782   11784   11786   11785   11787   11789   11788   11790
   11792   11791   11793   11795   11794   11796   11798   11797   11799
   11801   11800   11802   11804   11803   11805   11807   11806   11808
   11810   11809   11811   11813   11812   11814   11816   11815   11817
   11819   11818   11820   11822   11821   11823   11825   11824   11826
   11828   11827   11829   11831   11830   11832   11834   11833   11835
   11837   11836   11838   11840   11839   11841   11843   11842   11844
   11846   11845   11847   11849   11848   11850   11852   11851   11853
   11855   11854   11856   11858   11857   11859   11861   11860   11862
   11864   11863   11865   11867   11866   11868   11870   11869   11871
   11873   11872   11874   11876   11875   11877   11879   11878   11880
   11882   11881   11883   11885   11884   11886   11888   11887   11889
   11891   11890   11892   11894   11893   11895   11897   11896   11898
   11900   11899   11901   11903   11902   11904   11906   11905   11907
   11909   11908   11910   11912   11911   11913   11915   11914   11916
   11918   11917   11919   11921   11920   11922   11924   11923   11925
   11927   11926   11928   11930   11929   11931   11933   11932   11934
   11936   11935   11937   11939   11938   11940   11942   11941   11943
   11945   11944   11946   11948   11947   11949   11951   11950   11952
   11954   11953   11955   11957   11956   11958   11960   11959   11961
   11963   11962   11964   11966   11965   11967   11969   11968   11970
   11972   11971   11973   11975   11974   11976   11978   11977   11979
   11981   11980   11982   11984   11983   11985   11987   11986   11988
   11990   11989   11991   11993   11992   11994   11996   11995   11997
   11999   11998   12000   12002   12001   12003   12005   12004   12006
   12008   12007   12009   12011   12010   12012   12014   12013   12015
   12017   12016   12018   12020   12019   12021   12023   12022   12024
   12026   12025   12027   12029   12028   12030   12032   12031   12033
   12035   12034   12036   12038   12037   12039   12041   12040   12042
   12044   12043   12045   12047   12046   12048   12050   12049   12051
   12053   12052   12054   12056   12055   12057   12059   12058   12060
   12062   12061   12063   12065   12064   12066   12068   12067   12069
   12071   12070   12072   12074   12073   12075   12077   12076   12078
   12080   12079   12081   12083   12082   12084   12086   12085   12087
   12089   12088   12090   12092   12091   12093   12095   12094   12096
   12098   12097   12099   12101   12100   12102   12104   12103   12105
   12107   12106   12108   12110   12109   12111   12113   12112   12114
   12116   12115   12117   12119   12118   12120   12122   12121   12123
   12125   12124   12126   12128   12127   12129   12131   12130   12132
   12134   12133   12135   12137   12136   12138   12140   12139   12141
   12143   12142   12144   12146   12145   12147   12149   12148   12150
   12152   12151   12153   12155   12154   12156   12158   12157   12159
   12161   12160   12162   12164   12163   12165   12167   12166   12168
   12170   12169   12171   12173   12172   12174   12176   12175   12177
   12179   12178   12180   12182   12181   12183   12185   12184   12186
   12188   12187   12189   12191   12190   12192   12194   12193   12195
   12197   12196   12198   12200   12199   12201   12203   12202   12204
   12206   12205   12207   12209   12208   12210   12212   12211   12213
   12215   12214   12216   12218   12217   12219   12221   12220   12222
   12224   12223   12225   12227   12226   12228   12230   12229   12231
   12233   12232   12234   12236   12235   12237   12239   12238   12240
   12242   12241   12243   12245   12244   12246   12248   12247   12249
   12251   12250   12252   12254   12253   12255   12257   12256   12258
   12260   12259   12261   12263   12262   12264   12266   12265   12267
   12269   12268   12270   12272   12271   12273   12275   12274   12276
   12278   12277   12279   12281   12280   12282   12284   12283   12285
   12287   12286   12288   12290   12289   12291   12293   12292   12294
   12296   12295   12297   12299   12298   12300   12302   12301   12303
   12305   12304   12306   12308   12307   12309   12311   12310   12312
   12314   12313   12315   12317   12316   12318   12320   12319   12321
   12323   12322   12324   12326   12325   12327   12329   12328   12330
   12332   12331   12333   12335   12334   12336   12338   12337   12339
   12341   12340   12342   12344   12343   12345   12347   12346   12348
   12350   12349   12351   12353   12352   12354   12356   12355   12357
   12359   12358   12360   12362   12361   12363   12365   12364   12366
   12368   12367   12369   12371   12370   12372   12374   12373   12375
   12377   12376   12378   12380   12379   12381   12383   12382   12384
   12386   12385   12387   12389   12388   12390   12392   12391   12393
   12395   12394   12396   12398   12397   12399   12401   12400   12402
   12404   12403   12405   12407   12406   12408   12410   12409   12411
   12413   12412   12414   12416   12415   12417   12419   12418   12420
   12422   12421   12423   12425   12424   12426   12428   12427   12429
   12431   12430   12432   12434   12433   12435   12437   12436   12438
   12440   12439   12441   12443   12442   12444   12446   12445   12447
   12449   12448   12450   12452   12451   12453   12455   12454   12456
   12458   12457   12459   12461   12460   12462   12464   12463   12465
   12467   12466   12468   12470   12469   12471   12473   12472   12474
   12476   12475   12477   12479   12478   12480   12482   12481   12483
   12485   12484   12486   12488   12487   12489   12491   12490   12492
   12494   12493   12495   12497   12496   12498   12500   12499   12501
   12503   12502   12504   12506   12505   12507   12509   12508   12510
   12512   12511   12513   12515   12514   12516   12518   12517   12519
   12521   12520   12522   12524   12523   12525   12527   12526   12528
   12530   12529   12531   12533   12532   12534   12536   12535   12537
   12539   12538   12540   12542   12541   12543   12545   12544   12546
   12548   12547   12549   12551   12550   12552   12554   12553   12555
   12557   12556   12558   12560   12559   12561   12563   12562   12564
   12566   12565   12567   12569   12568   12570   12572   12571   12573
   12575   12574   12576   12578   12577   12579   12581   12580   12582
   12584   12583   12585   12587   12586   12588   12590   12589   12591
   12593   12592   12594   12596   12595   12597   12599   12598   12600
   12602   12601   12603   12605   12604   12606   12608   12607   12609
   12611   12610   12612   12614   12613   12615   12617   12616   12618
   12620   12619   12621   12623   12622   12624   12626   12625   12627
   12629   12628   12630   12632   12631   12633   12635   12634   12636
   12638   12637   12639   12641   12640   12642   12644   12643   12645
   12647   12646   12648   12650   12649   12651   12653   12652   12654
   12656   12655   12657   12659   12658   12660   12662   12661   12663
   12665   12664   12666   12668   12667   12669   12671   12670   12672
   12674   12673   12675   12677   12676   12678   12680   12679   12681
   12683   12682   12684   12686   12685   12687   12689   12688   12690
   12692   12691   12693   12695   12694   12696   12698   12697   12699
   12701   12700   12702   12704   12703   12705   12707   12706   12708
   12710   12709   12711   12713   12712   12714   12716   12715   12717
   12719   12718   12720   12722   12721   12723   12725   12724   12726
   12728   12727   12729   12731   12730   12732   12734   12733   12735
   12737   12736   12738   12740   12739   12741   12743   12742   12744
   12746   12745   12747   12749   12748   12750   12752   12751   12753
   12755   12754   12756   12758   12757   12759   12761   12760   12762
   12764   12763   12765   12767   12766   12768   12770   12769   12771
   12773   12772   12774   12776   12775   12777   12779   12778   12780
   12782   12781   12783   12785   12784   12786   12788   12787   12789
   12791   12790   12792   12794   12793   12795   12797   12796   12798
   12800   12799   12801   12803   12802   12804   12806   12805   12807
   12809   12808   12810   12812   12811   12813   12815   12814   12816
   12818   12817   12819   12821   12820   12822   12824   12823   12825
   12827   12826   12828   12830   12829   12831   12833   12832   12834
   12836   12835   12837   12839   12838   12840   12842   12841   12843
   12845   12844   12846   12848   12847   12849   12851   12850   12852
   12854   12853   12855   12857   12856   12858   12860   12859   12861
   12863   12862   12864   12866   12865   12867   12869   12868   12870
   12872   12871   12873   12875   12874   12876   12878   12877   12879
   12881   12880   12882   12884   12883   12885   12887   12886   12888
   12890   12889   12891   12893   12892   12894   12896   12895   12897
   12899   12898   12900   12902   12901   12903   12905   12904   12906
   12908   12907   12909   12911   12910   12912   12914   12913   12915
   12917   12916   12918   12920   12919   12921   12923   12922   12924
   12926   12925   12927   12929   12928   12930   12932   12931   12933
   12935   12934   12936   12938   12937   12939   12941   12940   12942
   12944   12943   12945   12947   12946   12948   12950   12949   12951
   12953   12952   12954   12956   12955   12957   12959   12958   12960
   12962   12961   12963   12965   12964   12966   12968   12967   12969
   12971   12970   12972   12974   12973   12975   12977   12976   12978
   12980   12979   12981   12983   12982   12984   12986   12985   12987
   12989   12988   12990   12992   12991   12993   12995   12994   12996
   12998   12997   12999   13001   13000   13002   13004   13003   13005
   13007   13006   13008   13010   13009   13011   13013   13012   13014
   13016   13015   13017   13019   13018   13020   13022   13021   13023
   13025   13024   13026   13028   13027   13029   13031   13030   13032
   13034   13033   13035   13037   13036   13038   13040   13039   13041
   13043   13042   13044   13046   13045   13047   13049   13048   13050
   13052   13051   13053   13055   13054   13056   13058   13057   13059
   13061   13060   13062   13064   13063   13065   13067   13066   13068
   13070   13069   13071   13073   13072   13074   13076   13075   13077
   13079   13078   13080   13082   13081   13083   13085   13084   13086
   13088   13087   13089   13091   13090   13092   13094   13093   13095
   13097   13096   13098   13100   13099   13101   13103   13102   13104
   13106   13105   13107   13109   13108   13110   13112   13111   13113
   13115   13114   13116   13118   13117   13119   13121   13120   13122
   13124   13123   13125   13127   13126   13128   13130   13129   13131
   13132   13145   13148   13132   13145   13147   13132   13145   13146
   13132   13141   13144   13132   13141   13143   13132   13141   13142
   13132   13137   13140   13132   13137   13139   13132   13137   13138
   13132   13133   13136   13132   13133   13135   13132   13133   13134
   13133   13132   13145   13133   13132   13141   13133   13132   13137
   13134   13133   13136   13134   13133   13135   13135   13133   13136
   13137   13132   13145   13137   13132   13141   13138   13137   13140
   13138   13137   13139   13139   13137   13140   13141   13132   13145
   13142   13141   13144   13142   13141   13143   13143   13141   13144
   13145   13148   13155   13145   13148   13150   13145   13148   13149
   13146   13145   13148   13146   13145   13147   13147   13145   13148
   13148   13155   13151   13149   13148   13155   13149   13148   13150
   13150   13148   13155   13151   13154   13156   13152   13151   13153
   13152   13151   13154   13152   13151   13155   13153   13151   13154
   13153   13151   13155   13154   13151   13155   13154   13156   13157
   13154   13156   13158   13154   13156   13159   13156   13159   13161
   13156   13159   13167   13156   13159   13160   13157   13156   13159
   13157   13156   13158   13158   13156   13159   13159   13167   13170
   13159   13167   13169   13159   13167   13168   13159   13161   13162
   13160   13159   13161   13160   13159   13167   13161   13162   13163
   13161   13162   13164   13161   13159   13167   13162   13164   13176
   13162   13164   13166   13162   13164   13165   13163   13162   13164
   13164   13176   13179   13164   13176   13178   13164   13176   13177
   13165   13164   13176   13165   13164   13166   13166   13164   13176
   13167   13170   13171   13168   13167   13170   13168   13167   13169
   13169   13167   13170   13170   13171   13172   13170   13171   13173
   13171   13173   13213   13171   13173   13175   13171   13173   13174
   13172   13171   13173   13173   13213   13216   13173   13213   13215
   13173   13213   13214   13174   13173   13213   13174   13173   13175
   13175   13173   13213   13176   13179   13182   13176   13179   13181
   13176   13179   13180   13177   13176   13179   13177   13176   13178
   13178   13176   13179   13179   13182   13185   13179   13182   13184
   13179   13182   13183   13180   13179   13182   13180   13179   13181
   13181   13179   13182   13182   13185   13188   13182   13185   13187
   13182   13185   13186   13183   13182   13185   13183   13182   13184
   13184   13182   13185   13185   13188   13191   13185   13188   13190
   13185   13188   13189   13186   13185   13188   13186   13185   13187
   13187   13185   13188   13188   13191   13194   13188   13191   13193
   13188   13191   13192   13189   13188   13191   13189   13188   13190
   13190   13188   13191   13191   13194   13197   13191   13194   13196
   13191   13194   13195   13192   13191   13194   13192   13191   13193
   13193   13191   13194   13194   13197   13200   13194   13197   13199
   13194   13197   13198   13195   13194   13197   13195   13194   13196
   13196   13194   13197   13197   13200   13203   13197   13200   13202
   13197   13200   13201   13198   13197   13200   13198   13197   13199
   13199   13197   13200   13200   13203   13206   13200   13203   13205
   13200   13203   13204   13201   13200   13203   13201   13200   13202
   13202   13200   13203   13203   13206   13209   13203   13206   13208
   13203   13206   13207   13204   13203   13206   13204   13203   13205
   13205   13203   13206   13206   13209   13212   13206   13209   13211
   13206   13209   13210   13207   13206   13209   13207   13206   13208
   13208   13206   13209   13210   13209   13212   13210   13209   13211
   13211   13209   13212   13213   13216   13219   13213   13216   13218
   13213   13216   13217   13214   13213   13216   13214   13213   13215
   13215   13213   13216   13216   13219   13222   13216   13219   13221
   13216   13219   13220   13217   13216   13219   13217   13216   13218
   13218   13216   13219   13219   13222   13225   13219   13222   13224
   13219   13222   13223   13220   13219   13222   13220   13219   13221
   13221   13219   13222   13222   13225   13228   13222   13225   13227
   13222   13225   13226   13223   13222   13225   13223   13222   13224
   13224   13222   13225   13225   13228   13231   13225   13228   13230
   13225   13228   13229   13226   13225   13228   13226   13225   13227
   13227   13225   13228   13228   13231   13234   13228   13231   13233
   13228   13231   13232   13229   13228   13231   13229   13228   13230
   13230   13228   13231   13231   13234   13237   13231   13234   13236
   13231   13234   13235   13232   13231   13234   13232   13231   13233
   13233   13231   13234   13234   13237   13240   13234   13237   13239
   13234   13237   13238   13235   13234   13237   13235   13234   13236
   13236   13234   13237   13237   13240   13243   13237   13240   13242
   13237   13240   13241   13238   13237   13240   13238   13237   13239
   13239   13237   13240   13240   13243   13246   13240   13243   13245
   13240   13243   13244   13241   13240   13243   13241   13240   13242
   13242   13240   13243   13243   13246   13249   13243   13246   13248
   13243   13246   13247   13244   13243   13246   13244   13243   13245
   13245   13243   13246   13247   13246   13249   13247   13246   13248
   13248   13246   13249   13250   13263   13266   13250   13263   13265
   13250   13263   13264   13250   13259   13262   13250   13259   13261
   13250   13259   13260   13250   13255   13258   13250   13255   13257
   13250   13255   13256   13250   13251   13254   13250   13251   13253
   13250   13251   13252   13251   13250   13263   13251   13250   13259
   13251   13250   13255   13252   13251   13254   13252   13251   13253
   13253   13251   13254   13255   13250   13263   13255   13250   13259
   13256   13255   13258   13256   13255   13257   13257   13255   13258
   13259   13250   13263   13260   13259   13262   13260   13259   13261
   13261   13259   13262   13263   13266   13273   13263   13266   13268
   13263   13266   13267   13264   13263   13266   13264   13263   13265
   13265   13263   13266   13266   13273   13269   13267   13266   13273
   13267   13266   13268   13268   13266   13273   13269   13272   13274
   13270   13269   13271   13270   13269   13272   13270   13269   13273
   13271   13269   13272   13271   13269   13273   13272   13269   13273
   13272   13274   13275   13272   13274   13276   13272   13274   13277
   13274   13277   13279   13274   13277   13285   13274   13277   13278
   13275   13274   13277   13275   13274   13276   13276   13274   13277
   13277   13285   13288   13277   13285   13287   13277   13285   13286
   13277   13279   13280   13278   13277   13279   13278   13277   13285
   13279   13280   13281   13279   13280   13282   13279   13277   13285
   13280   13282   13294   13280   13282   13284   13280   13282   13283
   13281   13280   13282   13282   13294   13297   13282   13294   13296
   13282   13294   13295   13283   13282   13294   13283   13282   13284
   13284   13282   13294   13285   13288   13289   13286   13285   13288
   13286   13285   13287   13287   13285   13288   13288   13289   13290
   13288   13289   13291   13289   13291   13331   13289   13291   13293
   13289   13291   13292   13290   13289   13291   13291   13331   13334
   13291   13331   13333   13291   13331   13332   13292   13291   13331
   13292   13291   13293   13293   13291   13331   13294   13297   13300
   13294   13297   13299   13294   13297   13298   13295   13294   13297
   13295   13294   13296   13296   13294   13297   13297   13300   13303
   13297   13300   13302   13297   13300   13301   13298   13297   13300
   13298   13297   13299   13299   13297   13300   13300   13303   13306
   13300   13303   13305   13300   13303   13304   13301   13300   13303
   13301   13300   13302   13302   13300   13303   13303   13306   13309
   13303   13306   13308   13303   13306   13307   13304   13303   13306
   13304   13303   13305   13305   13303   13306   13306   13309   13312
   13306   13309   13311   13306   13309   13310   13307   13306   13309
   13307   13306   13308   13308   13306   13309   13309   13312   13315
   13309   13312   13314   13309   13312   13313   13310   13309   13312
   13310   13309   13311   13311   13309   13312   13312   13315   13318
   13312   13315   13317   13312   13315   13316   13313   13312   13315
   13313   13312   13314   13314   13312   13315   13315   13318   13321
   13315   13318   13320   13315   13318   13319   13316   13315   13318
   13316   13315   13317   13317   13315   13318   13318   13321   13324
   13318   13321   13323   13318   13321   13322   13319   13318   13321
   13319   13318   13320   13320   13318   13321   13321   13324   13327
   13321   13324   13326   13321   13324   13325   13322   13321   13324
   13322   13321   13323   13323   13321   13324   13324   13327   13330
   13324   13327   13329   13324   13327   13328   13325   13324   13327
   13325   13324   13326   13326   13324   13327   13328   13327   13330
   13328   13327   13329   13329   13327   13330   13331   13334   13337
   13331   13334   13336   13331   13334   13335   13332   13331   13334
   13332   13331   13333   13333   13331   13334   13334   13337   13340
   13334   13337   13339   13334   13337   13338   13335   13334   13337
   13335   13334   13336   13336   13334   13337   13337   13340   13343
   13337   13340   13342   13337   13340   13341   13338   13337   13340
   13338   13337   13339   13339   13337   13340   13340   13343   13346
   13340   13343   13345   13340   13343   13344   13341   13340   13343
   13341   13340   13342   13342   13340   13343   13343   13346   13349
   13343   13346   13348   13343   13346   13347   13344   13343   13346
   13344   13343   13345   13345   13343   13346   13346   13349   13352
   13346   13349   13351   13346   13349   13350   13347   13346   13349
   13347   13346   13348   13348   13346   13349   13349   13352   13355
   13349   13352   13354   13349   13352   13353   13350   13349   13352
   13350   13349   13351   13351   13349   13352   13352   13355   13358
   13352   13355   13357   13352   13355   13356   13353   13352   13355
   13353   13352   13354   13354   13352   13355   13355   13358   13361
   13355   13358   13360   13355   13358   13359   13356   13355   13358
   13356   13355   13357   13357   13355   13358   13358   13361   13364
   13358   13361   13363   13358   13361   13362   13359   13358   13361
   13359   13358   13360   13360   13358   13361   13361   13364   13367
   13361   13364   13366   13361   13364   13365   13362   13361   13364
   13362   13361   13363   13363   13361   13364   13365   13364   13367
   13365   13364   13366   13366   13364   13367   13368   13381   13384
   13368   13381   13383   13368   13381   13382   13368   13377   13380
   13368   13377   13379   13368   13377   13378   13368   13373   13376
   13368   13373   13375   13368   13373   13374   13368   13369   13372
   13368   13369   13371   13368   13369   13370   13369   13368   13381
   13369   13368   13377   13369   13368   13373   13370   13369   13372
   13370   13369   13371   13371   13369   13372   13373   13368   13381
   13373   13368   13377   13374   13373   13376   13374   13373   13375
   13375   13373   13376   13377   13368   13381   13378   13377   13380
   13378   13377   13379   13379   13377   13380   13381   13384   13391
   13381   13384   13386   13381   13384   13385   13382   13381   13384
   13382   13381   13383   13383   13381   13384   13384   13391   13387
   13385   13384   13391   13385   13384   13386   13386   13384   13391
   13387   13390   13392   13388   13387   13389   13388   13387   13390
   13388   13387   13391   13389   13387   13390   13389   13387   13391
   13390   13387   13391   13390   13392   13393   13390   13392   13394
   13390   13392   13395   13392   13395   13397   13392   13395   13403
   13392   13395   13396   13393   13392   13395   13393   13392   13394
   13394   13392   13395   13395   13403   13406   13395   13403   13405
   13395   13403   13404   13395   13397   13398   13396   13395   13397
   13396   13395   13403   13397   13398   13399   13397   13398   13400
   13397   13395   13403   13398   13400   13412   13398   13400   13402
   13398   13400   13401   13399   13398   13400   13400   13412   13415
   13400   13412   13414   13400   13412   13413   13401   13400   13412
   13401   13400   13402   13402   13400   13412   13403   13406   13407
   13404   13403   13406   13404   13403   13405   13405   13403   13406
   13406   13407   13408   13406   13407   13409   13407   13409   13449
   13407   13409   13411   13407   13409   13410   13408   13407   13409
   13409   13449   13452   13409   13449   13451   13409   13449   13450
   13410   13409   13449   13410   13409   13411   13411   13409   13449
   13412   13415   13418   13412   13415   13417   13412   13415   13416
   13413   13412   13415   13413   13412   13414   13414   13412   13415
   13415   13418   13421   13415   13418   13420   13415   13418   13419
   13416   13415   13418   13416   13415   13417   13417   13415   13418
   13418   13421   13424   13418   13421   13423   13418   13421   13422
   13419   13418   13421   13419   13418   13420   13420   13418   13421
   13421   13424   13427   13421   13424   13426   13421   13424   13425
   13422   13421   13424   13422   13421   13423   13423   13421   13424
   13424   13427   13430   13424   13427   13429   13424   13427   13428
   13425   13424   13427   13425   13424   13426   13426   13424   13427
   13427   13430   13433   13427   13430   13432   13427   13430   13431
   13428   13427   13430   13428   13427   13429   13429   13427   13430
   13430   13433   13436   13430   13433   13435   13430   13433   13434
   13431   13430   13433   13431   13430   13432   13432   13430   13433
   13433   13436   13439   13433   13436   13438   13433   13436   13437
   13434   13433   13436   13434   13433   13435   13435   13433   13436
   13436   13439   13442   13436   13439   13441   13436   13439   13440
   13437   13436   13439   13437   13436   13438   13438   13436   13439
   13439   13442   13445   13439   13442   13444   13439   13442   13443
   13440   13439   13442   13440   13439   13441   13441   13439   13442
   13442   13445   13448   13442   13445   13447   13442   13445   13446
   13443   13442   13445   13443   13442   13444   13444   13442   13445
   13446   13445   13448   13446   13445   13447   13447   13445   13448
   13449   13452   13455   13449   13452   13454   13449   13452   13453
   13450   13449   13452   13450   13449   13451   13451   13449   13452
   13452   13455   13458   13452   13455   13457   13452   13455   13456
   13453   13452   13455   13453   13452   13454   13454   13452   13455
   13455   13458   13461   13455   13458   13460   13455   13458   13459
   13456   13455   13458   13456   13455   13457   13457   13455   13458
   13458   13461   13464   13458   13461   13463   13458   13461   13462
   13459   13458   13461   13459   13458   13460   13460   13458   13461
   13461   13464   13467   13461   13464   13466   13461   13464   13465
   13462   13461   13464   13462   13461   13463   13463   13461   13464
   13464   13467   13470   13464   13467   13469   13464   13467   13468
   13465   13464   13467   13465   13464   13466   13466   13464   13467
   13467   13470   13473   13467   13470   13472   13467   13470   13471
   13468   13467   13470   13468   13467   13469   13469   13467   13470
   13470   13473   13476   13470   13473   13475   13470   13473   13474
   13471   13470   13473   13471   13470   13472   13472   13470   13473
   13473   13476   13479   13473   13476   13478   13473   13476   13477
   13474   13473   13476   13474   13473   13475   13475   13473   13476
   13476   13479   13482   13476   13479   13481   13476   13479   13480
   13477   13476   13479   13477   13476   13478   13478   13476   13479
   13479   13482   13485   13479   13482   13484   13479   13482   13483
   13480   13479   13482   13480   13479   13481   13481   13479   13482
   13483   13482   13485   13483   13482   13484   13484   13482   13485
   13486   13499   13502   13486   13499   13501   13486   13499   13500
   13486   13495   13498   13486   13495   13497   13486   13495   13496
   13486   13491   13494   13486   13491   13493   13486   13491   13492
   13486   13487   13490   13486   13487   13489   13486   13487   13488
   13487   13486   13499   13487   13486   13495   13487   13486   13491
   13488   13487   13490   13488   13487   13489   13489   13487   13490
   13491   13486   13499   13491   13486   13495   13492   13491   13494
   13492   13491   13493   13493   13491   13494   13495   13486   13499
   13496   13495   13498   13496   13495   13497   13497   13495   13498
   13499   13502   13509   13499   13502   13504   13499   13502   13503
   13500   13499   13502   13500   13499   13501   13501   13499   13502
   13502   13509   13505   13503   13502   13509   13503   13502   13504
   13504   13502   13509   13505   13508   13510   13506   13505   13507
   13506   13505   13508   13506   13505   13509   13507   13505   13508
   13507   13505   13509   13508   13505   13509   13508   13510   13511
   13508   13510   13512   13508   13510   13513   13510   13513   13515
   13510   13513   13521   13510   13513   13514   13511   13510   13513
   13511   13510   13512   13512   13510   13513   13513   13521   13524
   13513   13521   13523   13513   13521   13522   13513   13515   13516
   13514   13513   13515   13514   13513   13521   13515   13516   13517
   13515   13516   13518   13515   13513   13521   13516   13518   13530
   13516   13518   13520   13516   13518   13519   13517   13516   13518
   13518   13530   13533   13518   13530   13532   13518   13530   13531
   13519   13518   13530   13519   13518   13520   13520   13518   13530
   13521   13524   13525   13522   13521   13524   13522   13521   13523
   13523   13521   13524   13524   13525   13526   13524   13525   13527
   13525   13527   13567   13525   13527   13529   13525   13527   13528
   13526   13525   13527   13527   13567   13570   13527   13567   13569
   13527   13567   13568   13528   13527   13567   13528   13527   13529
   13529   13527   13567   13530   13533   13536   13530   13533   13535
   13530   13533   13534   13531   13530   13533   13531   13530   13532
   13532   13530   13533   13533   13536   13539   13533   13536   13538
   13533   13536   13537   13534   13533   13536   13534   13533   13535
   13535   13533   13536   13536   13539   13542   13536   13539   13541
   13536   13539   13540   13537   13536   13539   13537   13536   13538
   13538   13536   13539   13539   13542   13545   13539   13542   13544
   13539   13542   13543   13540   13539   13542   13540   13539   13541
   13541   13539   13542   13542   13545   13548   13542   13545   13547
   13542   13545   13546   13543   13542   13545   13543   13542   13544
   13544   13542   13545   13545   13548   13551   13545   13548   13550
   13545   13548   13549   13546   13545   13548   13546   13545   13547
   13547   13545   13548   13548   13551   13554   13548   13551   13553
   13548   13551   13552   13549   13548   13551   13549   13548   13550
   13550   13548   13551   13551   13554   13557   13551   13554   13556
   13551   13554   13555   13552   13551   13554   13552   13551   13553
   13553   13551   13554   13554   13557   13560   13554   13557   13559
   13554   13557   13558   13555   13554   13557   13555   13554   13556
   13556   13554   13557   13557   13560   13563   13557   13560   13562
   13557   13560   13561   13558   13557   13560   13558   13557   13559
   13559   13557   13560   13560   13563   13566   13560   13563   13565
   13560   13563   13564   13561   13560   13563   13561   13560   13562
   13562   13560   13563   13564   13563   13566   13564   13563   13565
   13565   13563   13566   13567   13570   13573   13567   13570   13572
   13567   13570   13571   13568   13567   13570   13568   13567   13569
   13569   13567   13570   13570   13573   13576   13570   13573   13575
   13570   13573   13574   13571   13570   13573   13571   13570   13572
   13572   13570   13573   13573   13576   13579   13573   13576   13578
   13573   13576   13577   13574   13573   13576   13574   13573   13575
   13575   13573   13576   13576   13579   13582   13576   13579   13581
   13576   13579   13580   13577   13576   13579   13577   13576   13578
   13578   13576   13579   13579   13582   13585   13579   13582   13584
   13579   13582   13583   13580   13579   13582   13580   13579   13581
   13581   13579   13582   13582   13585   13588   13582   13585   13587
   13582   13585   13586   13583   13582   13585   13583   13582   13584
   13584   13582   13585   13585   13588   13591   13585   13588   13590
   13585   13588   13589   13586   13585   13588   13586   13585   13587
   13587   13585   13588   13588   13591   13594   13588   13591   13593
   13588   13591   13592   13589   13588   13591   13589   13588   13590
   13590   13588   13591   13591   13594   13597   13591   13594   13596
   13591   13594   13595   13592   13591   13594   13592   13591   13593
   13593   13591   13594   13594   13597   13600   13594   13597   13599
   13594   13597   13598   13595   13594   13597   13595   13594   13596
   13596   13594   13597   13597   13600   13603   13597   13600   13602
   13597   13600   13601   13598   13597   13600   13598   13597   13599
   13599   13597   13600   13601   13600   13603   13601   13600   13602
   13602   13600   13603   13604   13617   13620   13604   13617   13619
   13604   13617   13618   13604   13613   13616   13604   13613   13615
   13604   13613   13614   13604   13609   13612   13604   13609   13611
   13604   13609   13610   13604   13605   13608   13604   13605   13607
   13604   13605   13606   13605   13604   13617   13605   13604   13613
   13605   13604   13609   13606   13605   13608   13606   13605   13607
   13607   13605   13608   13609   13604   13617   13609   13604   13613
   13610   13609   13612   13610   13609   13611   13611   13609   13612
   13613   13604   13617   13614   13613   13616   13614   13613   13615
   13615   13613   13616   13617   13620   13627   13617   13620   13622
   13617   13620   13621   13618   13617   13620   13618   13617   13619
   13619   13617   13620   13620   13627   13623   13621   13620   13627
   13621   13620   13622   13622   13620   13627   13623   13626   13628
   13624   13623   13625   13624   13623   13626   13624   13623   13627
   13625   13623   13626   13625   13623   13627   13626   13623   13627
   13626   13628   13629   13626   13628   13630   13626   13628   13631
   13628   13631   13633   13628   13631   13639   13628   13631   13632
   13629   13628   13631   13629   13628   13630   13630   13628   13631
   13631   13639   13642   13631   13639   13641   13631   13639   13640
   13631   13633   13634   13632   13631   13633   13632   13631   13639
   13633   13634   13635   13633   13634   13636   13633   13631   13639
   13634   13636   13648   13634   13636   13638   13634   13636   13637
   13635   13634   13636   13636   13648   13651   13636   13648   13650
   13636   13648   13649   13637   13636   13648   13637   13636   13638
   13638   13636   13648   13639   13642   13643   13640   13639   13642
   13640   13639   13641   13641   13639   13642   13642   13643   13644
   13642   13643   13645   13643   13645   13685   13643   13645   13647
   13643   13645   13646   13644   13643   13645   13645   13685   13688
   13645   13685   13687   13645   13685   13686   13646   13645   13685
   13646   13645   13647   13647   13645   13685   13648   13651   13654
   13648   13651   13653   13648   13651   13652   13649   13648   13651
   13649   13648   13650   13650   13648   13651   13651   13654   13657
   13651   13654   13656   13651   13654   13655   13652   13651   13654
   13652   13651   13653   13653   13651   13654   13654   13657   13660
   13654   13657   13659   13654   13657   13658   13655   13654   13657
   13655   13654   13656   13656   13654   13657   13657   13660   13663
   13657   13660   13662   13657   13660   13661   13658   13657   13660
   13658   13657   13659   13659   13657   13660   13660   13663   13666
   13660   13663   13665   13660   13663   13664   13661   13660   13663
   13661   13660   13662   13662   13660   13663   13663   13666   13669
   13663   13666   13668   13663   13666   13667   13664   13663   13666
   13664   13663   13665   13665   13663   13666   13666   13669   13672
   13666   13669   13671   13666   13669   13670   13667   13666   13669
   13667   13666   13668   13668   13666   13669   13669   13672   13675
   13669   13672   13674   13669   13672   13673   13670   13669   13672
   13670   13669   13671   13671   13669   13672   13672   13675   13678
   13672   13675   13677   13672   13675   13676   13673   13672   13675
   13673   13672   13674   13674   13672   13675   13675   13678   13681
   13675   13678   13680   13675   13678   13679   13676   13675   13678
   13676   13675   13677   13677   13675   13678   13678   13681   13684
   13678   13681   13683   13678   13681   13682   13679   13678   13681
   13679   13678   13680   13680   13678   13681   13682   13681   13684
   13682   13681   13683   13683   13681   13684   13685   13688   13691
   13685   13688   13690   13685   13688   13689   13686   13685   13688
   13686   13685   13687   13687   13685   13688   13688   13691   13694
   13688   13691   13693   13688   13691   13692   13689   13688   13691
   13689   13688   13690   13690   13688   13691   13691   13694   13697
   13691   13694   13696   13691   13694   13695   13692   13691   13694
   13692   13691   13693   13693   13691   13694   13694   13697   13700
   13694   13697   13699   13694   13697   13698   13695   13694   13697
   13695   13694   13696   13696   13694   13697   13697   13700   13703
   13697   13700   13702   13697   13700   13701   13698   13697   13700
   13698   13697   13699   13699   13697   13700   13700   13703   13706
   13700   13703   13705   13700   13703   13704   13701   13700   13703
   13701   13700   13702   13702   13700   13703   13703   13706   13709
   13703   13706   13708   13703   13706   13707   13704   13703   13706
   13704   13703   13705   13705   13703   13706   13706   13709   13712
   13706   13709   13711   13706   13709   13710   13707   13706   13709
   13707   13706   13708   13708   13706   13709   13709   13712   13715
   13709   13712   13714   13709   13712   13713   13710   13709   13712
   13710   13709   13711   13711   13709   13712   13712   13715   13718
   13712   13715   13717   13712   13715   13716   13713   13712   13715
   13713   13712   13714   13714   13712   13715   13715   13718   13721
   13715   13718   13720   13715   13718   13719   13716   13715   13718
   13716   13715   13717   13717   13715   13718   13719   13718   13721
   13719   13718   13720   13720   13718   13721   13722   13735   13738
   13722   13735   13737   13722   13735   13736   13722   13731   13734
   13722   13731   13733   13722   13731   13732   13722   13727   13730
   13722   13727   13729   13722   13727   13728   13722   13723   13726
   13722   13723   13725   13722   13723   13724   13723   13722   13735
   13723   13722   13731   13723   13722   13727   13724   13723   13726
   13724   13723   13725   13725   13723   13726   13727   13722   13735
   13727   13722   13731   13728   13727   13730   13728   13727   13729
   13729   13727   13730   13731   13722   13735   13732   13731   13734
   13732   13731   13733   13733   13731   13734   13735   13738   13745
   13735   13738   13740   13735   13738   13739   13736   13735   13738
   13736   13735   13737   13737   13735   13738   13738   13745   13741
   13739   13738   13745   13739   13738   13740   13740   13738   13745
   13741   13744   13746   13742   13741   13743   13742   13741   13744
   13742   13741   13745   13743   13741   13744   13743   13741   13745
   13744   13741   13745   13744   13746   13747   13744   13746   13748
   13744   13746   13749   13746   13749   13751   13746   13749   13757
   13746   13749   13750   13747   13746   13749   13747   13746   13748
   13748   13746   13749   13749   13757   13760   13749   13757   13759
   13749   13757   13758   13749   13751   13752   13750   13749   13751
   13750   13749   13757   13751   13752   13753   13751   13752   13754
   13751   13749   13757   13752   13754   13766   13752   13754   13756
   13752   13754   13755   13753   13752   13754   13754   13766   13769
   13754   13766   13768   13754   13766   13767   13755   13754   13766
   13755   13754   13756   13756   13754   13766   13757   13760   13761
   13758   13757   13760   13758   13757   13759   13759   13757   13760
   13760   13761   13762   13760   13761   13763   13761   13763   13803
   13761   13763   13765   13761   13763   13764   13762   13761   13763
   13763   13803   13806   13763   13803   13805   13763   13803   13804
   13764   13763   13803   13764   13763   13765   13765   13763   13803
   13766   13769   13772   13766   13769   13771   13766   13769   13770
   13767   13766   13769   13767   13766   13768   13768   13766   13769
   13769   13772   13775   13769   13772   13774   13769   13772   13773
   13770   13769   13772   13770   13769   13771   13771   13769   13772
   13772   13775   13778   13772   13775   13777   13772   13775   13776
   13773   13772   13775   13773   13772   13774   13774   13772   13775
   13775   13778   13781   13775   13778   13780   13775   13778   13779
   13776   13775   13778   13776   13775   13777   13777   13775   13778
   13778   13781   13784   13778   13781   13783   13778   13781   13782
   13779   13778   13781   13779   13778   13780   13780   13778   13781
   13781   13784   13787   13781   13784   13786   13781   13784   13785
   13782   13781   13784   13782   13781   13783   13783   13781   13784
   13784   13787   13790   13784   13787   13789   13784   13787   13788
   13785   13784   13787   13785   13784   13786   13786   13784   13787
   13787   13790   13793   13787   13790   13792   13787   13790   13791
   13788   13787   13790   13788   13787   13789   13789   13787   13790
   13790   13793   13796   13790   13793   13795   13790   13793   13794
   13791   13790   13793   13791   13790   13792   13792   13790   13793
   13793   13796   13799   13793   13796   13798   13793   13796   13797
   13794   13793   13796   13794   13793   13795   13795   13793   13796
   13796   13799   13802   13796   13799   13801   13796   13799   13800
   13797   13796   13799   13797   13796   13798   13798   13796   13799
   13800   13799   13802   13800   13799   13801   13801   13799   13802
   13803   13806   13809   13803   13806   13808   13803   13806   13807
   13804   13803   13806   13804   13803   13805   13805   13803   13806
   13806   13809   13812   13806   13809   13811   13806   13809   13810
   13807   13806   13809   13807   13806   13808   13808   13806   13809
   13809   13812   13815   13809   13812   13814   13809   13812   13813
   13810   13809   13812   13810   13809   13811   13811   13809   13812
   13812   13815   13818   13812   13815   13817   13812   13815   13816
   13813   13812   13815   13813   13812   13814   13814   13812   13815
   13815   13818   13821   13815   13818   13820   13815   13818   13819
   13816   13815   13818   13816   13815   13817   13817   13815   13818
   13818   13821   13824   13818   13821   13823   13818   13821   13822
   13819   13818   13821   13819   13818   13820   13820   13818   13821
   13821   13824   13827   13821   13824   13826   13821   13824   13825
   13822   13821   13824   13822   13821   13823   13823   13821   13824
   13824   13827   13830   13824   13827   13829   13824   13827   13828
   13825   13824   13827   13825   13824   13826   13826   13824   13827
   13827   13830   13833   13827   13830   13832   13827   13830   13831
   13828   13827   13830   13828   13827   13829   13829   13827   13830
   13830   13833   13836   13830   13833   13835   13830   13833   13834
   13831   13830   13833   13831   13830   13832   13832   13830   13833
   13833   13836   13839   13833   13836   13838   13833   13836   13837
   13834   13833   13836   13834   13833   13835   13835   13833   13836
   13837   13836   13839   13837   13836   13838   13838   13836   13839
   13840   13853   13856   13840   13853   13855   13840   13853   13854
   13840   13849   13852   13840   13849   13851   13840   13849   13850
   13840   13845   13848   13840   13845   13847   13840   13845   13846
   13840   13841   13844   13840   13841   13843   13840   13841   13842
   13841   13840   13853   13841   13840   13849   13841   13840   13845
   13842   13841   13844   13842   13841   13843   13843   13841   13844
   13845   13840   13853   13845   13840   13849   13846   13845   13848
   13846   13845   13847   13847   13845   13848   13849   13840   13853
   13850   13849   13852   13850   13849   13851   13851   13849   13852
   13853   13856   13863   13853   13856   13858   13853   13856   13857
   13854   13853   13856   13854   13853   13855   13855   13853   13856
   13856   13863   13859   13857   13856   13863   13857   13856   13858
   13858   13856   13863   13859   13862   13864   13860   13859   13861
   13860   13859   13862   13860   13859   13863   13861   13859   13862
   13861   13859   13863   13862   13859   13863   13862   13864   13865
   13862   13864   13866   13862   13864   13867   13864   13867   13869
   13864   13867   13875   13864   13867   13868   13865   13864   13867
   13865   13864   13866   13866   13864   13867   13867   13875   13878
   13867   13875   13877   13867   13875   13876   13867   13869   13870
   13868   13867   13869   13868   13867   13875   13869   13870   13871
   13869   13870   13872   13869   13867   13875   13870   13872   13884
   13870   13872   13874   13870   13872   13873   13871   13870   13872
   13872   13884   13887   13872   13884   13886   13872   13884   13885
   13873   13872   13884   13873   13872   13874   13874   13872   13884
   13875   13878   13879   13876   13875   13878   13876   13875   13877
   13877   13875   13878   13878   13879   13880   13878   13879   13881
   13879   13881   13921   13879   13881   13883   13879   13881   13882
   13880   13879   13881   13881   13921   13924   13881   13921   13923
   13881   13921   13922   13882   13881   13921   13882   13881   13883
   13883   13881   13921   13884   13887   13890   13884   13887   13889
   13884   13887   13888   13885   13884   13887   13885   13884   13886
   13886   13884   13887   13887   13890   13893   13887   13890   13892
   13887   13890   13891   13888   13887   13890   13888   13887   13889
   13889   13887   13890   13890   13893   13896   13890   13893   13895
   13890   13893   13894   13891   13890   13893   13891   13890   13892
   13892   13890   13893   13893   13896   13899   13893   13896   13898
   13893   13896   13897   13894   13893   13896   13894   13893   13895
   13895   13893   13896   13896   13899   13902   13896   13899   13901
   13896   13899   13900   13897   13896   13899   13897   13896   13898
   13898   13896   13899   13899   13902   13905   13899   13902   13904
   13899   13902   13903   13900   13899   13902   13900   13899   13901
   13901   13899   13902   13902   13905   13908   13902   13905   13907
   13902   13905   13906   13903   13902   13905   13903   13902   13904
   13904   13902   13905   13905   13908   13911   13905   13908   13910
   13905   13908   13909   13906   13905   13908   13906   13905   13907
   13907   13905   13908   13908   13911   13914   13908   13911   13913
   13908   13911   13912   13909   13908   13911   13909   13908   13910
   13910   13908   13911   13911   13914   13917   13911   13914   13916
   13911   13914   13915   13912   13911   13914   13912   13911   13913
   13913   13911   13914   13914   13917   13920   13914   13917   13919
   13914   13917   13918   13915   13914   13917   13915   13914   13916
   13916   13914   13917   13918   13917   13920   13918   13917   13919
   13919   13917   13920   13921   13924   13927   13921   13924   13926
   13921   13924   13925   13922   13921   13924   13922   13921   13923
   13923   13921   13924   13924   13927   13930   13924   13927   13929
   13924   13927   13928   13925   13924   13927   13925   13924   13926
   13926   13924   13927   13927   13930   13933   13927   13930   13932
   13927   13930   13931   13928   13927   13930   13928   13927   13929
   13929   13927   13930   13930   13933   13936   13930   13933   13935
   13930   13933   13934   13931   13930   13933   13931   13930   13932
   13932   13930   13933   13933   13936   13939   13933   13936   13938
   13933   13936   13937   13934   13933   13936   13934   13933   13935
   13935   13933   13936   13936   13939   13942   13936   13939   13941
   13936   13939   13940   13937   13936   13939   13937   13936   13938
   13938   13936   13939   13939   13942   13945   13939   13942   13944
   13939   13942   13943   13940   13939   13942   13940   13939   13941
   13941   13939   13942   13942   13945   13948   13942   13945   13947
   13942   13945   13946   13943   13942   13945   13943   13942   13944
   13944   13942   13945   13945   13948   13951   13945   13948   13950
   13945   13948   13949   13946   13945   13948   13946   13945   13947
   13947   13945   13948   13948   13951   13954   13948   13951   13953
   13948   13951   13952   13949   13948   13951   13949   13948   13950
   13950   13948   13951   13951   13954   13957   13951   13954   13956
   13951   13954   13955   13952   13951   13954   13952   13951   13953
   13953   13951   13954   13955   13954   13957   13955   13954   13956
   13956   13954   13957   13958   13971   13974   13958   13971   13973
   13958   13971   13972   13958   13967   13970   13958   13967   13969
   13958   13967   13968   13958   13963   13966   13958   13963   13965
   13958   13963   13964   13958   13959   13962   13958   13959   13961
   13958   13959   13960   13959   13958   13971   13959   13958   13967
   13959   13958   13963   13960   13959   13962   13960   13959   13961
   13961   13959   13962   13963   13958   13971   13963   13958   13967
   13964   13963   13966   13964   13963   13965   13965   13963   13966
   13967   13958   13971   13968   13967   13970   13968   13967   13969
   13969   13967   13970   13971   13974   13981   13971   13974   13976
   13971   13974   13975   13972   13971   13974   13972   13971   13973
   13973   13971   13974   13974   13981   13977   13975   13974   13981
   13975   13974   13976   13976   13974   13981   13977   13980   13982
   13978   13977   13979   13978   13977   13980   13978   13977   13981
   13979   13977   13980   13979   13977   13981   13980   13977   13981
   13980   13982   13983   13980   13982   13984   13980   13982   13985
   13982   13985   13987   13982   13985   13993   13982   13985   13986
   13983   13982   13985   13983   13982   13984   13984   13982   13985
   13985   13993   13996   13985   13993   13995   13985   13993   13994
   13985   13987   13988   13986   13985   13987   13986   13985   13993
   13987   13988   13989   13987   13988   13990   13987   13985   13993
   13988   13990   14002   13988   13990   13992   13988   13990   13991
   13989   13988   13990   13990   14002   14005   13990   14002   14004
   13990   14002   14003   13991   13990   14002   13991   13990   13992
   13992   13990   14002   13993   13996   13997   13994   13993   13996
   13994   13993   13995   13995   13993   13996   13996   13997   13998
   13996   13997   13999   13997   13999   14039   13997   13999   14001
   13997   13999   14000   13998   13997   13999   13999   14039   14042
   13999   14039   14041   13999   14039   14040   14000   13999   14039
   14000   13999   14001   14001   13999   14039   14002   14005   14008
   14002   14005   14007   14002   14005   14006   14003   14002   14005
   14003   14002   14004   14004   14002   14005   14005   14008   14011
   14005   14008   14010   14005   14008   14009   14006   14005   14008
   14006   14005   14007   14007   14005   14008   14008   14011   14014
   14008   14011   14013   14008   14011   14012   14009   14008   14011
   14009   14008   14010   14010   14008   14011   14011   14014   14017
   14011   14014   14016   14011   14014   14015   14012   14011   14014
   14012   14011   14013   14013   14011   14014   14014   14017   14020
   14014   14017   14019   14014   14017   14018   14015   14014   14017
   14015   14014   14016   14016   14014   14017   14017   14020   14023
   14017   14020   14022   14017   14020   14021   14018   14017   14020
   14018   14017   14019   14019   14017   14020   14020   14023   14026
   14020   14023   14025   14020   14023   14024   14021   14020   14023
   14021   14020   14022   14022   14020   14023   14023   14026   14029
   14023   14026   14028   14023   14026   14027   14024   14023   14026
   14024   14023   14025   14025   14023   14026   14026   14029   14032
   14026   14029   14031   14026   14029   14030   14027   14026   14029
   14027   14026   14028   14028   14026   14029   14029   14032   14035
   14029   14032   14034   14029   14032   14033   14030   14029   14032
   14030   14029   14031   14031   14029   14032   14032   14035   14038
   14032   14035   14037   14032   14035   14036   14033   14032   14035
   14033   14032   14034   14034   14032   14035   14036   14035   14038
   14036   14035   14037   14037   14035   14038   14039   14042   14045
   14039   14042   14044   14039   14042   14043   14040   14039   14042
   14040   14039   14041   14041   14039   14042   14042   14045   14048
   14042   14045   14047   14042   14045   14046   14043   14042   14045
   14043   14042   14044   14044   14042   14045   14045   14048   14051
   14045   14048   14050   14045   14048   14049   14046   14045   14048
   14046   14045   14047   14047   14045   14048   14048   14051   14054
   14048   14051   14053   14048   14051   14052   14049   14048   14051
   14049   14048   14050   14050   14048   14051   14051   14054   14057
   14051   14054   14056   14051   14054   14055   14052   14051   14054
   14052   14051   14053   14053   14051   14054   14054   14057   14060
   14054   14057   14059   14054   14057   14058   14055   14054   14057
   14055   14054   14056   14056   14054   14057   14057   14060   14063
   14057   14060   14062   14057   14060   14061   14058   14057   14060
   14058   14057   14059   14059   14057   14060   14060   14063   14066
   14060   14063   14065   14060   14063   14064   14061   14060   14063
   14061   14060   14062   14062   14060   14063   14063   14066   14069
   14063   14066   14068   14063   14066   14067   14064   14063   14066
   14064   14063   14065   14065   14063   14066   14066   14069   14072
   14066   14069   14071   14066   14069   14070   14067   14066   14069
   14067   14066   14068   14068   14066   14069   14069   14072   14075
   14069   14072   14074   14069   14072   14073   14070   14069   14072
   14070   14069   14071   14071   14069   14072   14073   14072   14075
   14073   14072   14074   14074   14072   14075   14076   14089   14092
   14076   14089   14091   14076   14089   14090   14076   14085   14088
   14076   14085   14087   14076   14085   14086   14076   14081   14084
   14076   14081   14083   14076   14081   14082   14076   14077   14080
   14076   14077   14079   14076   14077   14078   14077   14076   14089
   14077   14076   14085   14077   14076   14081   14078   14077   14080
   14078   14077   14079   14079   14077   14080   14081   14076   14089
   14081   14076   14085   14082   14081   14084   14082   14081   14083
   14083   14081   14084   14085   14076   14089   14086   14085   14088
   14086   14085   14087   14087   14085   14088   14089   14092   14099
   14089   14092   14094   14089   14092   14093   14090   14089   14092
   14090   14089   14091   14091   14089   14092   14092   14099   14095
   14093   14092   14099   14093   14092   14094   14094   14092   14099
   14095   14098   14100   14096   14095   14097   14096   14095   14098
   14096   14095   14099   14097   14095   14098   14097   14095   14099
   14098   14095   14099   14098   14100   14101   14098   14100   14102
   14098   14100   14103   14100   14103   14105   14100   14103   14111
   14100   14103   14104   14101   14100   14103   14101   14100   14102
   14102   14100   14103   14103   14111   14114   14103   14111   14113
   14103   14111   14112   14103   14105   14106   14104   14103   14105
   14104   14103   14111   14105   14106   14107   14105   14106   14108
   14105   14103   14111   14106   14108   14120   14106   14108   14110
   14106   14108   14109   14107   14106   14108   14108   14120   14123
   14108   14120   14122   14108   14120   14121   14109   14108   14120
   14109   14108   14110   14110   14108   14120   14111   14114   14115
   14112   14111   14114   14112   14111   14113   14113   14111   14114
   14114   14115   14116   14114   14115   14117   14115   14117   14157
   14115   14117   14119   14115   14117   14118   14116   14115   14117
   14117   14157   14160   14117   14157   14159   14117   14157   14158
   14118   14117   14157   14118   14117   14119   14119   14117   14157
   14120   14123   14126   14120   14123   14125   14120   14123   14124
   14121   14120   14123   14121   14120   14122   14122   14120   14123
   14123   14126   14129   14123   14126   14128   14123   14126   14127
   14124   14123   14126   14124   14123   14125   14125   14123   14126
   14126   14129   14132   14126   14129   14131   14126   14129   14130
   14127   14126   14129   14127   14126   14128   14128   14126   14129
   14129   14132   14135   14129   14132   14134   14129   14132   14133
   14130   14129   14132   14130   14129   14131   14131   14129   14132
   14132   14135   14138   14132   14135   14137   14132   14135   14136
   14133   14132   14135   14133   14132   14134   14134   14132   14135
   14135   14138   14141   14135   14138   14140   14135   14138   14139
   14136   14135   14138   14136   14135   14137   14137   14135   14138
   14138   14141   14144   14138   14141   14143   14138   14141   14142
   14139   14138   14141   14139   14138   14140   14140   14138   14141
   14141   14144   14147   14141   14144   14146   14141   14144   14145
   14142   14141   14144   14142   14141   14143   14143   14141   14144
   14144   14147   14150   14144   14147   14149   14144   14147   14148
   14145   14144   14147   14145   14144   14146   14146   14144   14147
   14147   14150   14153   14147   14150   14152   14147   14150   14151
   14148   14147   14150   14148   14147   14149   14149   14147   14150
   14150   14153   14156   14150   14153   14155   14150   14153   14154
   14151   14150   14153   14151   14150   14152   14152   14150   14153
   14154   14153   14156   14154   14153   14155   14155   14153   14156
   14157   14160   14163   14157   14160   14162   14157   14160   14161
   14158   14157   14160   14158   14157   14159   14159   14157   14160
   14160   14163   14166   14160   14163   14165   14160   14163   14164
   14161   14160   14163   14161   14160   14162   14162   14160   14163
   14163   14166   14169   14163   14166   14168   14163   14166   14167
   14164   14163   14166   14164   14163   14165   14165   14163   14166
   14166   14169   14172   14166   14169   14171   14166   14169   14170
   14167   14166   14169   14167   14166   14168   14168   14166   14169
   14169   14172   14175   14169   14172   14174   14169   14172   14173
   14170   14169   14172   14170   14169   14171   14171   14169   14172
   14172   14175   14178   14172   14175   14177   14172   14175   14176
   14173   14172   14175   14173   14172   14174   14174   14172   14175
   14175   14178   14181   14175   14178   14180   14175   14178   14179
   14176   14175   14178   14176   14175   14177   14177   14175   14178
   14178   14181   14184   14178   14181   14183   14178   14181   14182
   14179   14178   14181   14179   14178   14180   14180   14178   14181
   14181   14184   14187   14181   14184   14186   14181   14184   14185
   14182   14181   14184   14182   14181   14183   14183   14181   14184
   14184   14187   14190   14184   14187   14189   14184   14187   14188
   14185   14184   14187   14185   14184   14186   14186   14184   14187
   14187   14190   14193   14187   14190   14192   14187   14190   14191
   14188   14187   14190   14188   14187   14189   14189   14187   14190
   14191   14190   14193   14191   14190   14192   14192   14190   14193
   14194   14207   14210   14194   14207   14209   14194   14207   14208
   14194   14203   14206   14194   14203   14205   14194   14203   14204
   14194   14199   14202   14194   14199   14201   14194   14199   14200
   14194   14195   14198   14194   14195   14197   14194   14195   14196
   14195   14194   14207   14195   14194   14203   14195   14194   14199
   14196   14195   14198   14196   14195   14197   14197   14195   14198
   14199   14194   14207   14199   14194   14203   14200   14199   14202
   14200   14199   14201   14201   14199   14202   14203   14194   14207
   14204   14203   14206   14204   14203   14205   14205   14203   14206
   14207   14210   14217   14207   14210   14212   14207   14210   14211
   14208   14207   14210   14208   14207   14209   14209   14207   14210
   14210   14217   14213   14211   14210   14217   14211   14210   14212
   14212   14210   14217   14213   14216   14218   14214   14213   14215
   14214   14213   14216   14214   14213   14217   14215   14213   14216
   14215   14213   14217   14216   14213   14217   14216   14218   14219
   14216   14218   14220   14216   14218   14221   14218   14221   14223
   14218   14221   14229   14218   14221   14222   14219   14218   14221
   14219   14218   14220   14220   14218   14221   14221   14229   14232
   14221   14229   14231   14221   14229   14230   14221   14223   14224
   14222   14221   14223   14222   14221   14229   14223   14224   14225
   14223   14224   14226   14223   14221   14229   14224   14226   14238
   14224   14226   14228   14224   14226   14227   14225   14224   14226
   14226   14238   14241   14226   14238   14240   14226   14238   14239
   14227   14226   14238   14227   14226   14228   14228   14226   14238
   14229   14232   14233   14230   14229   14232   14230   14229   14231
   14231   14229   14232   14232   14233   14234   14232   14233   14235
   14233   14235   14275   14233   14235   14237   14233   14235   14236
   14234   14233   14235   14235   14275   14278   14235   14275   14277
   14235   14275   14276   14236   14235   14275   14236   14235   14237
   14237   14235   14275   14238   14241   14244   14238   14241   14243
   14238   14241   14242   14239   14238   14241   14239   14238   14240
   14240   14238   14241   14241   14244   14247   14241   14244   14246
   14241   14244   14245   14242   14241   14244   14242   14241   14243
   14243   14241   14244   14244   14247   14250   14244   14247   14249
   14244   14247   14248   14245   14244   14247   14245   14244   14246
   14246   14244   14247   14247   14250   14253   14247   14250   14252
   14247   14250   14251   14248   14247   14250   14248   14247   14249
   14249   14247   14250   14250   14253   14256   14250   14253   14255
   14250   14253   14254   14251   14250   14253   14251   14250   14252
   14252   14250   14253   14253   14256   14259   14253   14256   14258
   14253   14256   14257   14254   14253   14256   14254   14253   14255
   14255   14253   14256   14256   14259   14262   14256   14259   14261
   14256   14259   14260   14257   14256   14259   14257   14256   14258
   14258   14256   14259   14259   14262   14265   14259   14262   14264
   14259   14262   14263   14260   14259   14262   14260   14259   14261
   14261   14259   14262   14262   14265   14268   14262   14265   14267
   14262   14265   14266   14263   14262   14265   14263   14262   14264
   14264   14262   14265   14265   14268   14271   14265   14268   14270
   14265   14268   14269   14266   14265   14268   14266   14265   14267
   14267   14265   14268   14268   14271   14274   14268   14271   14273
   14268   14271   14272   14269   14268   14271   14269   14268   14270
   14270   14268   14271   14272   14271   14274   14272   14271   14273
   14273   14271   14274   14275   14278   14281   14275   14278   14280
   14275   14278   14279   14276   14275   14278   14276   14275   14277
   14277   14275   14278   14278   14281   14284   14278   14281   14283
   14278   14281   14282   14279   14278   14281   14279   14278   14280
   14280   14278   14281   14281   14284   14287   14281   14284   14286
   14281   14284   14285   14282   14281   14284   14282   14281   14283
   14283   14281   14284   14284   14287   14290   14284   14287   14289
   14284   14287   14288   14285   14284   14287   14285   14284   14286
   14286   14284   14287   14287   14290   14293   14287   14290   14292
   14287   14290   14291   14288   14287   14290   14288   14287   14289
   14289   14287   14290   14290   14293   14296   14290   14293   14295
   14290   14293   14294   14291   14290   14293   14291   14290   14292
   14292   14290   14293   14293   14296   14299   14293   14296   14298
   14293   14296   14297   14294   14293   14296   14294   14293   14295
   14295   14293   14296   14296   14299   14302   14296   14299   14301
   14296   14299   14300   14297   14296   14299   14297   14296   14298
   14298   14296   14299   14299   14302   14305   14299   14302   14304
   14299   14302   14303   14300   14299   14302   14300   14299   14301
   14301   14299   14302   14302   14305   14308   14302   14305   14307
   14302   14305   14306   14303   14302   14305   14303   14302   14304
   14304   14302   14305   14305   14308   14311   14305   14308   14310
   14305   14308   14309   14306   14305   14308   14306   14305   14307
   14307   14305   14308   14309   14308   14311   14309   14308   14310
   14310   14308   14311   14312   14325   14328   14312   14325   14327
   14312   14325   14326   14312   14321   14324   14312   14321   14323
   14312   14321   14322   14312   14317   14320   14312   14317   14319
   14312   14317   14318   14312   14313   14316   14312   14313   14315
   14312   14313   14314   14313   14312   14325   14313   14312   14321
   14313   14312   14317   14314   14313   14316   14314   14313   14315
   14315   14313   14316   14317   14312   14325   14317   14312   14321
   14318   14317   14320   14318   14317   14319   14319   14317   14320
   14321   14312   14325   14322   14321   14324   14322   14321   14323
   14323   14321   14324   14325   14328   14335   14325   14328   14330
   14325   14328   14329   14326   14325   14328   14326   14325   14327
   14327   14325   14328   14328   14335   14331   14329   14328   14335
   14329   14328   14330   14330   14328   14335   14331   14334   14336
   14332   14331   14333   14332   14331   14334   14332   14331   14335
   14333   14331   14334   14333   14331   14335   14334   14331   14335
   14334   14336   14337   14334   14336   14338   14334   14336   14339
   14336   14339   14341   14336   14339   14347   14336   14339   14340
   14337   14336   14339   14337   14336   14338   14338   14336   14339
   14339   14347   14350   14339   14347   14349   14339   14347   14348
   14339   14341   14342   14340   14339   14341   14340   14339   14347
   14341   14342   14343   14341   14342   14344   14341   14339   14347
   14342   14344   14356   14342   14344   14346   14342   14344   14345
   14343   14342   14344   14344   14356   14359   14344   14356   14358
   14344   14356   14357   14345   14344   14356   14345   14344   14346
   14346   14344   14356   14347   14350   14351   14348   14347   14350
   14348   14347   14349   14349   14347   14350   14350   14351   14352
   14350   14351   14353   14351   14353   14393   14351   14353   14355
   14351   14353   14354   14352   14351   14353   14353   14393   14396
   14353   14393   14395   14353   14393   14394   14354   14353   14393
   14354   14353   14355   14355   14353   14393   14356   14359   14362
   14356   14359   14361   14356   14359   14360   14357   14356   14359
   14357   14356   14358   14358   14356   14359   14359   14362   14365
   14359   14362   14364   14359   14362   14363   14360   14359   14362
   14360   14359   14361   14361   14359   14362   14362   14365   14368
   14362   14365   14367   14362   14365   14366   14363   14362   14365
   14363   14362   14364   14364   14362   14365   14365   14368   14371
   14365   14368   14370   14365   14368   14369   14366   14365   14368
   14366   14365   14367   14367   14365   14368   14368   14371   14374
   14368   14371   14373   14368   14371   14372   14369   14368   14371
   14369   14368   14370   14370   14368   14371   14371   14374   14377
   14371   14374   14376   14371   14374   14375   14372   14371   14374
   14372   14371   14373   14373   14371   14374   14374   14377   14380
   14374   14377   14379   14374   14377   14378   14375   14374   14377
   14375   14374   14376   14376   14374   14377   14377   14380   14383
   14377   14380   14382   14377   14380   14381   14378   14377   14380
   14378   14377   14379   14379   14377   14380   14380   14383   14386
   14380   14383   14385   14380   14383   14384   14381   14380   14383
   14381   14380   14382   14382   14380   14383   14383   14386   14389
   14383   14386   14388   14383   14386   14387   14384   14383   14386
   14384   14383   14385   14385   14383   14386   14386   14389   14392
   14386   14389   14391   14386   14389   14390   14387   14386   14389
   14387   14386   14388   14388   14386   14389   14390   14389   14392
   14390   14389   14391   14391   14389   14392   14393   14396   14399
   14393   14396   14398   14393   14396   14397   14394   14393   14396
   14394   14393   14395   14395   14393   14396   14396   14399   14402
   14396   14399   14401   14396   14399   14400   14397   14396   14399
   14397   14396   14398   14398   14396   14399   14399   14402   14405
   14399   14402   14404   14399   14402   14403   14400   14399   14402
   14400   14399   14401   14401   14399   14402   14402   14405   14408
   14402   14405   14407   14402   14405   14406   14403   14402   14405
   14403   14402   14404   14404   14402   14405   14405   14408   14411
   14405   14408   14410   14405   14408   14409   14406   14405   14408
   14406   14405   14407   14407   14405   14408   14408   14411   14414
   14408   14411   14413   14408   14411   14412   14409   14408   14411
   14409   14408   14410   14410   14408   14411   14411   14414   14417
   14411   14414   14416   14411   14414   14415   14412   14411   14414
   14412   14411   14413   14413   14411   14414   14414   14417   14420
   14414   14417   14419   14414   14417   14418   14415   14414   14417
   14415   14414   14416   14416   14414   14417   14417   14420   14423
   14417   14420   14422   14417   14420   14421   14418   14417   14420
   14418   14417   14419   14419   14417   14420   14420   14423   14426
   14420   14423   14425   14420   14423   14424   14421   14420   14423
   14421   14420   14422   14422   14420   14423   14423   14426   14429
   14423   14426   14428   14423   14426   14427   14424   14423   14426
   14424   14423   14425   14425   14423   14426   14427   14426   14429
   14427   14426   14428   14428   14426   14429   14430   14443   14446
   14430   14443   14445   14430   14443   14444   14430   14439   14442
   14430   14439   14441   14430   14439   14440   14430   14435   14438
   14430   14435   14437   14430   14435   14436   14430   14431   14434
   14430   14431   14433   14430   14431   14432   14431   14430   14443
   14431   14430   14439   14431   14430   14435   14432   14431   14434
   14432   14431   14433   14433   14431   14434   14435   14430   14443
   14435   14430   14439   14436   14435   14438   14436   14435   14437
   14437   14435   14438   14439   14430   14443   14440   14439   14442
   14440   14439   14441   14441   14439   14442   14443   14446   14453
   14443   14446   14448   14443   14446   14447   14444   14443   14446
   14444   14443   14445   14445   14443   14446   14446   14453   14449
   14447   14446   14453   14447   14446   14448   14448   14446   14453
   14449   14452   14454   14450   14449   14451   14450   14449   14452
   14450   14449   14453   14451   14449   14452   14451   14449   14453
   14452   14449   14453   14452   14454   14455   14452   14454   14456
   14452   14454   14457   14454   14457   14459   14454   14457   14465
   14454   14457   14458   14455   14454   14457   14455   14454   14456
   14456   14454   14457   14457   14465   14468   14457   14465   14467
   14457   14465   14466   14457   14459   14460   14458   14457   14459
   14458   14457   14465   14459   14460   14461   14459   14460   14462
   14459   14457   14465   14460   14462   14474   14460   14462   14464
   14460   14462   14463   14461   14460   14462   14462   14474   14477
   14462   14474   14476   14462   14474   14475   14463   14462   14474
   14463   14462   14464   14464   14462   14474   14465   14468   14469
   14466   14465   14468   14466   14465   14467   14467   14465   14468
   14468   14469   14470   14468   14469   14471   14469   14471   14511
   14469   14471   14473   14469   14471   14472   14470   14469   14471
   14471   14511   14514   14471   14511   14513   14471   14511   14512
   14472   14471   14511   14472   14471   14473   14473   14471   14511
   14474   14477   14480   14474   14477   14479   14474   14477   14478
   14475   14474   14477   14475   14474   14476   14476   14474   14477
   14477   14480   14483   14477   14480   14482   14477   14480   14481
   14478   14477   14480   14478   14477   14479   14479   14477   14480
   14480   14483   14486   14480   14483   14485   14480   14483   14484
   14481   14480   14483   14481   14480   14482   14482   14480   14483
   14483   14486   14489   14483   14486   14488   14483   14486   14487
   14484   14483   14486   14484   14483   14485   14485   14483   14486
   14486   14489   14492   14486   14489   14491   14486   14489   14490
   14487   14486   14489   14487   14486   14488   14488   14486   14489
   14489   14492   14495   14489   14492   14494   14489   14492   14493
   14490   14489   14492   14490   14489   14491   14491   14489   14492
   14492   14495   14498   14492   14495   14497   14492   14495   14496
   14493   14492   14495   14493   14492   14494   14494   14492   14495
   14495   14498   14501   14495   14498   14500   14495   14498   14499
   14496   14495   14498   14496   14495   14497   14497   14495   14498
   14498   14501   14504   14498   14501   14503   14498   14501   14502
   14499   14498   14501   14499   14498   14500   14500   14498   14501
   14501   14504   14507   14501   14504   14506   14501   14504   14505
   14502   14501   14504   14502   14501   14503   14503   14501   14504
   14504   14507   14510   14504   14507   14509   14504   14507   14508
   14505   14504   14507   14505   14504   14506   14506   14504   14507
   14508   14507   14510   14508   14507   14509   14509   14507   14510
   14511   14514   14517   14511   14514   14516   14511   14514   14515
   14512   14511   14514   14512   14511   14513   14513   14511   14514
   14514   14517   14520   14514   14517   14519   14514   14517   14518
   14515   14514   14517   14515   14514   14516   14516   14514   14517
   14517   14520   14523   14517   14520   14522   14517   14520   14521
   14518   14517   14520   14518   14517   14519   14519   14517   14520
   14520   14523   14526   14520   14523   14525   14520   14523   14524
   14521   14520   14523   14521   14520   14522   14522   14520   14523
   14523   14526   14529   14523   14526   14528   14523   14526   14527
   14524   14523   14526   14524   14523   14525   14525   14523   14526
   14526   14529   14532   14526   14529   14531   14526   14529   14530
   14527   14526   14529   14527   14526   14528   14528   14526   14529
   14529   14532   14535   14529   14532   14534   14529   14532   14533
   14530   14529   14532   14530   14529   14531   14531   14529   14532
   14532   14535   14538   14532   14535   14537   14532   14535   14536
   14533   14532   14535   14533   14532   14534   14534   14532   14535
   14535   14538   14541   14535   14538   14540   14535   14538   14539
   14536   14535   14538   14536   14535   14537   14537   14535   14538
   14538   14541   14544   14538   14541   14543   14538   14541   14542
   14539   14538   14541   14539   14538   14540   14540   14538   14541
   14541   14544   14547   14541   14544   14546   14541   14544   14545
   14542   14541   14544   14542   14541   14543   14543   14541   14544
   14545   14544   14547   14545   14544   14546   14546   14544   14547
   14548   14561   14564   14548   14561   14563   14548   14561   14562
   14548   14557   14560   14548   14557   14559   14548   14557   14558
   14548   14553   14556   14548   14553   14555   14548   14553   14554
   14548   14549   14552   14548   14549   14551   14548   14549   14550
   14549   14548   14561   14549   14548   14557   14549   14548   14553
   14550   14549   14552   14550   14549   14551   14551   14549   14552
   14553   14548   14561   14553   14548   14557   14554   14553   14556
   14554   14553   14555   14555   14553   14556   14557   14548   14561
   14558   14557   14560   14558   14557   14559   14559   14557   14560
   14561   14564   14571   14561   14564   14566   14561   14564   14565
   14562   14561   14564   14562   14561   14563   14563   14561   14564
   14564   14571   14567   14565   14564   14571   14565   14564   14566
   14566   14564   14571   14567   14570   14572   14568   14567   14569
   14568   14567   14570   14568   14567   14571   14569   14567   14570
   14569   14567   14571   14570   14567   14571   14570   14572   14573
   14570   14572   14574   14570   14572   14575   14572   14575   14577
   14572   14575   14583   14572   14575   14576   14573   14572   14575
   14573   14572   14574   14574   14572   14575   14575   14583   14586
   14575   14583   14585   14575   14583   14584   14575   14577   14578
   14576   14575   14577   14576   14575   14583   14577   14578   14579
   14577   14578   14580   14577   14575   14583   14578   14580   14592
   14578   14580   14582   14578   14580   14581   14579   14578   14580
   14580   14592   14595   14580   14592   14594   14580   14592   14593
   14581   14580   14592   14581   14580   14582   14582   14580   14592
   14583   14586   14587   14584   14583   14586   14584   14583   14585
   14585   14583   14586   14586   14587   14588   14586   14587   14589
   14587   14589   14629   14587   14589   14591   14587   14589   14590
   14588   14587   14589   14589   14629   14632   14589   14629   14631
   14589   14629   14630   14590   14589   14629   14590   14589   14591
   14591   14589   14629   14592   14595   14598   14592   14595   14597
   14592   14595   14596   14593   14592   14595   14593   14592   14594
   14594   14592   14595   14595   14598   14601   14595   14598   14600
   14595   14598   14599   14596   14595   14598   14596   14595   14597
   14597   14595   14598   14598   14601   14604   14598   14601   14603
   14598   14601   14602   14599   14598   14601   14599   14598   14600
   14600   14598   14601   14601   14604   14607   14601   14604   14606
   14601   14604   14605   14602   14601   14604   14602   14601   14603
   14603   14601   14604   14604   14607   14610   14604   14607   14609
   14604   14607   14608   14605   14604   14607   14605   14604   14606
   14606   14604   14607   14607   14610   14613   14607   14610   14612
   14607   14610   14611   14608   14607   14610   14608   14607   14609
   14609   14607   14610   14610   14613   14616   14610   14613   14615
   14610   14613   14614   14611   14610   14613   14611   14610   14612
   14612   14610   14613   14613   14616   14619   14613   14616   14618
   14613   14616   14617   14614   14613   14616   14614   14613   14615
   14615   14613   14616   14616   14619   14622   14616   14619   14621
   14616   14619   14620   14617   14616   14619   14617   14616   14618
   14618   14616   14619   14619   14622   14625   14619   14622   14624
   14619   14622   14623   14620   14619   14622   14620   14619   14621
   14621   14619   14622   14622   14625   14628   14622   14625   14627
   14622   14625   14626   14623   14622   14625   14623   14622   14624
   14624   14622   14625   14626   14625   14628   14626   14625   14627
   14627   14625   14628   14629   14632   14635   14629   14632   14634
   14629   14632   14633   14630   14629   14632   14630   14629   14631
   14631   14629   14632   14632   14635   14638   14632   14635   14637
   14632   14635   14636   14633   14632   14635   14633   14632   14634
   14634   14632   14635   14635   14638   14641   14635   14638   14640
   14635   14638   14639   14636   14635   14638   14636   14635   14637
   14637   14635   14638   14638   14641   14644   14638   14641   14643
   14638   14641   14642   14639   14638   14641   14639   14638   14640
   14640   14638   14641   14641   14644   14647   14641   14644   14646
   14641   14644   14645   14642   14641   14644   14642   14641   14643
   14643   14641   14644   14644   14647   14650   14644   14647   14649
   14644   14647   14648   14645   14644   14647   14645   14644   14646
   14646   14644   14647   14647   14650   14653   14647   14650   14652
   14647   14650   14651   14648   14647   14650   14648   14647   14649
   14649   14647   14650   14650   14653   14656   14650   14653   14655
   14650   14653   14654   14651   14650   14653   14651   14650   14652
   14652   14650   14653   14653   14656   14659   14653   14656   14658
   14653   14656   14657   14654   14653   14656   14654   14653   14655
   14655   14653   14656   14656   14659   14662   14656   14659   14661
   14656   14659   14660   14657   14656   14659   14657   14656   14658
   14658   14656   14659   14659   14662   14665   14659   14662   14664
   14659   14662   14663   14660   14659   14662   14660   14659   14661
   14661   14659   14662   14663   14662   14665   14663   14662   14664
   14664   14662   14665   14666   14679   14682   14666   14679   14681
   14666   14679   14680   14666   14675   14678   14666   14675   14677
   14666   14675   14676   14666   14671   14674   14666   14671   14673
   14666   14671   14672   14666   14667   14670   14666   14667   14669
   14666   14667   14668   14667   14666   14679   14667   14666   14675
   14667   14666   14671   14668   14667   14670   14668   14667   14669
   14669   14667   14670   14671   14666   14679   14671   14666   14675
   14672   14671   14674   14672   14671   14673   14673   14671   14674
   14675   14666   14679   14676   14675   14678   14676   14675   14677
   14677   14675   14678   14679   14682   14689   14679   14682   14684
   14679   14682   14683   14680   14679   14682   14680   14679   14681
   14681   14679   14682   14682   14689   14685   14683   14682   14689
   14683   14682   14684   14684   14682   14689   14685   14688   14690
   14686   14685   14687   14686   14685   14688   14686   14685   14689
   14687   14685   14688   14687   14685   14689   14688   14685   14689
   14688   14690   14691   14688   14690   14692   14688   14690   14693
   14690   14693   14695   14690   14693   14701   14690   14693   14694
   14691   14690   14693   14691   14690   14692   14692   14690   14693
   14693   14701   14704   14693   14701   14703   14693   14701   14702
   14693   14695   14696   14694   14693   14695   14694   14693   14701
   14695   14696   14697   14695   14696   14698   14695   14693   14701
   14696   14698   14710   14696   14698   14700   14696   14698   14699
   14697   14696   14698   14698   14710   14713   14698   14710   14712
   14698   14710   14711   14699   14698   14710   14699   14698   14700
   14700   14698   14710   14701   14704   14705   14702   14701   14704
   14702   14701   14703   14703   14701   14704   14704   14705   14706
   14704   14705   14707   14705   14707   14747   14705   14707   14709
   14705   14707   14708   14706   14705   14707   14707   14747   14750
   14707   14747   14749   14707   14747   14748   14708   14707   14747
   14708   14707   14709   14709   14707   14747   14710   14713   14716
   14710   14713   14715   14710   14713   14714   14711   14710   14713
   14711   14710   14712   14712   14710   14713   14713   14716   14719
   14713   14716   14718   14713   14716   14717   14714   14713   14716
   14714   14713   14715   14715   14713   14716   14716   14719   14722
   14716   14719   14721   14716   14719   14720   14717   14716   14719
   14717   14716   14718   14718   14716   14719   14719   14722   14725
   14719   14722   14724   14719   14722   14723   14720   14719   14722
   14720   14719   14721   14721   14719   14722   14722   14725   14728
   14722   14725   14727   14722   14725   14726   14723   14722   14725
   14723   14722   14724   14724   14722   14725   14725   14728   14731
   14725   14728   14730   14725   14728   14729   14726   14725   14728
   14726   14725   14727   14727   14725   14728   14728   14731   14734
   14728   14731   14733   14728   14731   14732   14729   14728   14731
   14729   14728   14730   14730   14728   14731   14731   14734   14737
   14731   14734   14736   14731   14734   14735   14732   14731   14734
   14732   14731   14733   14733   14731   14734   14734   14737   14740
   14734   14737   14739   14734   14737   14738   14735   14734   14737
   14735   14734   14736   14736   14734   14737   14737   14740   14743
   14737   14740   14742   14737   14740   14741   14738   14737   14740
   14738   14737   14739   14739   14737   14740   14740   14743   14746
   14740   14743   14745   14740   14743   14744   14741   14740   14743
   14741   14740   14742   14742   14740   14743   14744   14743   14746
   14744   14743   14745   14745   14743   14746   14747   14750   14753
   14747   14750   14752   14747   14750   14751   14748   14747   14750
   14748   14747   14749   14749   14747   14750   14750   14753   14756
   14750   14753   14755   14750   14753   14754   14751   14750   14753
   14751   14750   14752   14752   14750   14753   14753   14756   14759
   14753   14756   14758   14753   14756   14757   14754   14753   14756
   14754   14753   14755   14755   14753   14756   14756   14759   14762
   14756   14759   14761   14756   14759   14760   14757   14756   14759
   14757   14756   14758   14758   14756   14759   14759   14762   14765
   14759   14762   14764   14759   14762   14763   14760   14759   14762
   14760   14759   14761   14761   14759   14762   14762   14765   14768
   14762   14765   14767   14762   14765   14766   14763   14762   14765
   14763   14762   14764   14764   14762   14765   14765   14768   14771
   14765   14768   14770   14765   14768   14769   14766   14765   14768
   14766   14765   14767   14767   14765   14768   14768   14771   14774
   14768   14771   14773   14768   14771   14772   14769   14768   14771
   14769   14768   14770   14770   14768   14771   14771   14774   14777
   14771   14774   14776   14771   14774   14775   14772   14771   14774
   14772   14771   14773   14773   14771   14774   14774   14777   14780
   14774   14777   14779   14774   14777   14778   14775   14774   14777
   14775   14774   14776   14776   14774   14777   14777   14780   14783
   14777   14780   14782   14777   14780   14781   14778   14777   14780
   14778   14777   14779   14779   14777   14780   14781   14780   14783
   14781   14780   14782   14782   14780   14783   14784   14797   14800
   14784   14797   14799   14784   14797   14798   14784   14793   14796
   14784   14793   14795   14784   14793   14794   14784   14789   14792
   14784   14789   14791   14784   14789   14790   14784   14785   14788
   14784   14785   14787   14784   14785   14786   14785   14784   14797
   14785   14784   14793   14785   14784   14789   14786   14785   14788
   14786   14785   14787   14787   14785   14788   14789   14784   14797
   14789   14784   14793   14790   14789   14792   14790   14789   14791
   14791   14789   14792   14793   14784   14797   14794   14793   14796
   14794   14793   14795   14795   14793   14796   14797   14800   14807
   14797   14800   14802   14797   14800   14801   14798   14797   14800
   14798   14797   14799   14799   14797   14800   14800   14807   14803
   14801   14800   14807   14801   14800   14802   14802   14800   14807
   14803   14806   14808   14804   14803   14805   14804   14803   14806
   14804   14803   14807   14805   14803   14806   14805   14803   14807
   14806   14803   14807   14806   14808   14809   14806   14808   14810
   14806   14808   14811   14808   14811   14813   14808   14811   14819
   14808   14811   14812   14809   14808   14811   14809   14808   14810
   14810   14808   14811   14811   14819   14822   14811   14819   14821
   14811   14819   14820   14811   14813   14814   14812   14811   14813
   14812   14811   14819   14813   14814   14815   14813   14814   14816
   14813   14811   14819   14814   14816   14828   14814   14816   14818
   14814   14816   14817   14815   14814   14816   14816   14828   14831
   14816   14828   14830   14816   14828   14829   14817   14816   14828
   14817   14816   14818   14818   14816   14828   14819   14822   14823
   14820   14819   14822   14820   14819   14821   14821   14819   14822
   14822   14823   14824   14822   14823   14825   14823   14825   14865
   14823   14825   14827   14823   14825   14826   14824   14823   14825
   14825   14865   14868   14825   14865   14867   14825   14865   14866
   14826   14825   14865   14826   14825   14827   14827   14825   14865
   14828   14831   14834   14828   14831   14833   14828   14831   14832
   14829   14828   14831   14829   14828   14830   14830   14828   14831
   14831   14834   14837   14831   14834   14836   14831   14834   14835
   14832   14831   14834   14832   14831   14833   14833   14831   14834
   14834   14837   14840   14834   14837   14839   14834   14837   14838
   14835   14834   14837   14835   14834   14836   14836   14834   14837
   14837   14840   14843   14837   14840   14842   14837   14840   14841
   14838   14837   14840   14838   14837   14839   14839   14837   14840
   14840   14843   14846   14840   14843   14845   14840   14843   14844
   14841   14840   14843   14841   14840   14842   14842   14840   14843
   14843   14846   14849   14843   14846   14848   14843   14846   14847
   14844   14843   14846   14844   14843   14845   14845   14843   14846
   14846   14849   14852   14846   14849   14851   14846   14849   14850
   14847   14846   14849   14847   14846   14848   14848   14846   14849
   14849   14852   14855   14849   14852   14854   14849   14852   14853
   14850   14849   14852   14850   14849   14851   14851   14849   14852
   14852   14855   14858   14852   14855   14857   14852   14855   14856
   14853   14852   14855   14853   14852   14854   14854   14852   14855
   14855   14858   14861   14855   14858   14860   14855   14858   14859
   14856   14855   14858   14856   14855   14857   14857   14855   14858
   14858   14861   14864   14858   14861   14863   14858   14861   14862
   14859   14858   14861   14859   14858   14860   14860   14858   14861
   14862   14861   14864   14862   14861   14863   14863   14861   14864
   14865   14868   14871   14865   14868   14870   14865   14868   14869
   14866   14865   14868   14866   14865   14867   14867   14865   14868
   14868   14871   14874   14868   14871   14873   14868   14871   14872
   14869   14868   14871   14869   14868   14870   14870   14868   14871
   14871   14874   14877   14871   14874   14876   14871   14874   14875
   14872   14871   14874   14872   14871   14873   14873   14871   14874
   14874   14877   14880   14874   14877   14879   14874   14877   14878
   14875   14874   14877   14875   14874   14876   14876   14874   14877
   14877   14880   14883   14877   14880   14882   14877   14880   14881
   14878   14877   14880   14878   14877   14879   14879   14877   14880
   14880   14883   14886   14880   14883   14885   14880   14883   14884
   14881   14880   14883   14881   14880   14882   14882   14880   14883
   14883   14886   14889   14883   14886   14888   14883   14886   14887
   14884   14883   14886   14884   14883   14885   14885   14883   14886
   14886   14889   14892   14886   14889   14891   14886   14889   14890
   14887   14886   14889   14887   14886   14888   14888   14886   14889
   14889   14892   14895   14889   14892   14894   14889   14892   14893
   14890   14889   14892   14890   14889   14891   14891   14889   14892
   14892   14895   14898   14892   14895   14897   14892   14895   14896
   14893   14892   14895   14893   14892   14894   14894   14892   14895
   14895   14898   14901   14895   14898   14900   14895   14898   14899
   14896   14895   14898   14896   14895   14897   14897   14895   14898
   14899   14898   14901   14899   14898   14900   14900   14898   14901
   14902   14915   14918   14902   14915   14917   14902   14915   14916
   14902   14911   14914   14902   14911   14913   14902   14911   14912
   14902   14907   14910   14902   14907   14909   14902   14907   14908
   14902   14903   14906   14902   14903   14905   14902   14903   14904
   14903   14902   14915   14903   14902   14911   14903   14902   14907
   14904   14903   14906   14904   14903   14905   14905   14903   14906
   14907   14902   14915   14907   14902   14911   14908   14907   14910
   14908   14907   14909   14909   14907   14910   14911   14902   14915
   14912   14911   14914   14912   14911   14913   14913   14911   14914
   14915   14918   14925   14915   14918   14920   14915   14918   14919
   14916   14915   14918   14916   14915   14917   14917   14915   14918
   14918   14925   14921   14919   14918   14925   14919   14918   14920
   14920   14918   14925   14921   14924   14926   14922   14921   14923
   14922   14921   14924   14922   14921   14925   14923   14921   14924
   14923   14921   14925   14924   14921   14925   14924   14926   14927
   14924   14926   14928   14924   14926   14929   14926   14929   14931
   14926   14929   14937   14926   14929   14930   14927   14926   14929
   14927   14926   14928   14928   14926   14929   14929   14937   14940
   14929   14937   14939   14929   14937   14938   14929   14931   14932
   14930   14929   14931   14930   14929   14937   14931   14932   14933
   14931   14932   14934   14931   14929   14937   14932   14934   14946
   14932   14934   14936   14932   14934   14935   14933   14932   14934
   14934   14946   14949   14934   14946   14948   14934   14946   14947
   14935   14934   14946   14935   14934   14936   14936   14934   14946
   14937   14940   14941   14938   14937   14940   14938   14937   14939
   14939   14937   14940   14940   14941   14942   14940   14941   14943
   14941   14943   14983   14941   14943   14945   14941   14943   14944
   14942   14941   14943   14943   14983   14986   14943   14983   14985
   14943   14983   14984   14944   14943   14983   14944   14943   14945
   14945   14943   14983   14946   14949   14952   14946   14949   14951
   14946   14949   14950   14947   14946   14949   14947   14946   14948
   14948   14946   14949   14949   14952   14955   14949   14952   14954
   14949   14952   14953   14950   14949   14952   14950   14949   14951
   14951   14949   14952   14952   14955   14958   14952   14955   14957
   14952   14955   14956   14953   14952   14955   14953   14952   14954
   14954   14952   14955   14955   14958   14961   14955   14958   14960
   14955   14958   14959   14956   14955   14958   14956   14955   14957
   14957   14955   14958   14958   14961   14964   14958   14961   14963
   14958   14961   14962   14959   14958   14961   14959   14958   14960
   14960   14958   14961   14961   14964   14967   14961   14964   14966
   14961   14964   14965   14962   14961   14964   14962   14961   14963
   14963   14961   14964   14964   14967   14970   14964   14967   14969
   14964   14967   14968   14965   14964   14967   14965   14964   14966
   14966   14964   14967   14967   14970   14973   14967   14970   14972
   14967   14970   14971   14968   14967   14970   14968   14967   14969
   14969   14967   14970   14970   14973   14976   14970   14973   14975
   14970   14973   14974   14971   14970   14973   14971   14970   14972
   14972   14970   14973   14973   14976   14979   14973   14976   14978
   14973   14976   14977   14974   14973   14976   14974   14973   14975
   14975   14973   14976   14976   14979   14982   14976   14979   14981
   14976   14979   14980   14977   14976   14979   14977   14976   14978
   14978   14976   14979   14980   14979   14982   14980   14979   14981
   14981   14979   14982   14983   14986   14989   14983   14986   14988
   14983   14986   14987   14984   14983   14986   14984   14983   14985
   14985   14983   14986   14986   14989   14992   14986   14989   14991
   14986   14989   14990   14987   14986   14989   14987   14986   14988
   14988   14986   14989   14989   14992   14995   14989   14992   14994
   14989   14992   14993   14990   14989   14992   14990   14989   14991
   14991   14989   14992   14992   14995   14998   14992   14995   14997
   14992   14995   14996   14993   14992   14995   14993   14992   14994
   14994   14992   14995   14995   14998   15001   14995   14998   15000
   14995   14998   14999   14996   14995   14998   14996   14995   14997
   14997   14995   14998   14998   15001   15004   14998   15001   15003
   14998   15001   15002   14999   14998   15001   14999   14998   15000
   15000   14998   15001   15001   15004   15007   15001   15004   15006
   15001   15004   15005   15002   15001   15004   15002   15001   15003
   15003   15001   15004   15004   15007   15010   15004   15007   15009
   15004   15007   15008   15005   15004   15007   15005   15004   15006
   15006   15004   15007   15007   15010   15013   15007   15010   15012
   15007   15010   15011   15008   15007   15010   15008   15007   15009
   15009   15007   15010   15010   15013   15016   15010   15013   15015
   15010   15013   15014   15011   15010   15013   15011   15010   15012
   15012   15010   15013   15013   15016   15019   15013   15016   15018
   15013   15016   15017   15014   15013   15016   15014   15013   15015
   15015   15013   15016   15017   15016   15019   15017   15016   15018
   15018   15016   15019   15020   15033   15036   15020   15033   15035
   15020   15033   15034   15020   15029   15032   15020   15029   15031
   15020   15029   15030   15020   15025   15028   15020   15025   15027
   15020   15025   15026   15020   15021   15024   15020   15021   15023
   15020   15021   15022   15021   15020   15033   15021   15020   15029
   15021   15020   15025   15022   15021   15024   15022   15021   15023
   15023   15021   15024   15025   15020   15033   15025   15020   15029
   15026   15025   15028   15026   15025   15027   15027   15025   15028
   15029   15020   15033   15030   15029   15032   15030   15029   15031
   15031   15029   15032   15033   15036   15043   15033   15036   15038
   15033   15036   15037   15034   15033   15036   15034   15033   15035
   15035   15033   15036   15036   15043   15039   15037   15036   15043
   15037   15036   15038   15038   15036   15043   15039   15042   15044
   15040   15039   15041   15040   15039   15042   15040   15039   15043
   15041   15039   15042   15041   15039   15043   15042   15039   15043
   15042   15044   15045   15042   15044   15046   15042   15044   15047
   15044   15047   15049   15044   15047   15055   15044   15047   15048
   15045   15044   15047   15045   15044   15046   15046   15044   15047
   15047   15055   15058   15047   15055   15057   15047   15055   15056
   15047   15049   15050   15048   15047   15049   15048   15047   15055
   15049   15050   15051   15049   15050   15052   15049   15047   15055
   15050   15052   15064   15050   15052   15054   15050   15052   15053
   15051   15050   15052   15052   15064   15067   15052   15064   15066
   15052   15064   15065   15053   15052   15064   15053   15052   15054
   15054   15052   15064   15055   15058   15059   15056   15055   15058
   15056   15055   15057   15057   15055   15058   15058   15059   15060
   15058   15059   15061   15059   15061   15101   15059   15061   15063
   15059   15061   15062   15060   15059   15061   15061   15101   15104
   15061   15101   15103   15061   15101   15102   15062   15061   15101
   15062   15061   15063   15063   15061   15101   15064   15067   15070
   15064   15067   15069   15064   15067   15068   15065   15064   15067
   15065   15064   15066   15066   15064   15067   15067   15070   15073
   15067   15070   15072   15067   15070   15071   15068   15067   15070
   15068   15067   15069   15069   15067   15070   15070   15073   15076
   15070   15073   15075   15070   15073   15074   15071   15070   15073
   15071   15070   15072   15072   15070   15073   15073   15076   15079
   15073   15076   15078   15073   15076   15077   15074   15073   15076
   15074   15073   15075   15075   15073   15076   15076   15079   15082
   15076   15079   15081   15076   15079   15080   15077   15076   15079
   15077   15076   15078   15078   15076   15079   15079   15082   15085
   15079   15082   15084   15079   15082   15083   15080   15079   15082
   15080   15079   15081   15081   15079   15082   15082   15085   15088
   15082   15085   15087   15082   15085   15086   15083   15082   15085
   15083   15082   15084   15084   15082   15085   15085   15088   15091
   15085   15088   15090   15085   15088   15089   15086   15085   15088
   15086   15085   15087   15087   15085   15088   15088   15091   15094
   15088   15091   15093   15088   15091   15092   15089   15088   15091
   15089   15088   15090   15090   15088   15091   15091   15094   15097
   15091   15094   15096   15091   15094   15095   15092   15091   15094
   15092   15091   15093   15093   15091   15094   15094   15097   15100
   15094   15097   15099   15094   15097   15098   15095   15094   15097
   15095   15094   15096   15096   15094   15097   15098   15097   15100
   15098   15097   15099   15099   15097   15100   15101   15104   15107
   15101   15104   15106   15101   15104   15105   15102   15101   15104
   15102   15101   15103   15103   15101   15104   15104   15107   15110
   15104   15107   15109   15104   15107   15108   15105   15104   15107
   15105   15104   15106   15106   15104   15107   15107   15110   15113
   15107   15110   15112   15107   15110   15111   15108   15107   15110
   15108   15107   15109   15109   15107   15110   15110   15113   15116
   15110   15113   15115   15110   15113   15114   15111   15110   15113
   15111   15110   15112   15112   15110   15113   15113   15116   15119
   15113   15116   15118   15113   15116   15117   15114   15113   15116
   15114   15113   15115   15115   15113   15116   15116   15119   15122
   15116   15119   15121   15116   15119   15120   15117   15116   15119
   15117   15116   15118   15118   15116   15119   15119   15122   15125
   15119   15122   15124   15119   15122   15123   15120   15119   15122
   15120   15119   15121   15121   15119   15122   15122   15125   15128
   15122   15125   15127   15122   15125   15126   15123   15122   15125
   15123   15122   15124   15124   15122   15125   15125   15128   15131
   15125   15128   15130   15125   15128   15129   15126   15125   15128
   15126   15125   15127   15127   15125   15128   15128   15131   15134
   15128   15131   15133   15128   15131   15132   15129   15128   15131
   15129   15128   15130   15130   15128   15131   15131   15134   15137
   15131   15134   15136   15131   15134   15135   15132   15131   15134
   15132   15131   15133   15133   15131   15134   15135   15134   15137
   15135   15134   15136   15136   15134   15137   15138   15151   15154
   15138   15151   15153   15138   15151   15152   15138   15147   15150
   15138   15147   15149   15138   15147   15148   15138   15143   15146
   15138   15143   15145   15138   15143   15144   15138   15139   15142
   15138   15139   15141   15138   15139   15140   15139   15138   15151
   15139   15138   15147   15139   15138   15143   15140   15139   15142
   15140   15139   15141   15141   15139   15142   15143   15138   15151
   15143   15138   15147   15144   15143   15146   15144   15143   15145
   15145   15143   15146   15147   15138   15151   15148   15147   15150
   15148   15147   15149   15149   15147   15150   15151   15154   15161
   15151   15154   15156   15151   15154   15155   15152   15151   15154
   15152   15151   15153   15153   15151   15154   15154   15161   15157
   15155   15154   15161   15155   15154   15156   15156   15154   15161
   15157   15160   15162   15158   15157   15159   15158   15157   15160
   15158   15157   15161   15159   15157   15160   15159   15157   15161
   15160   15157   15161   15160   15162   15163   15160   15162   15164
   15160   15162   15165   15162   15165   15167   15162   15165   15173
   15162   15165   15166   15163   15162   15165   15163   15162   15164
   15164   15162   15165   15165   15173   15176   15165   15173   15175
   15165   15173   15174   15165   15167   15168   15166   15165   15167
   15166   15165   15173   15167   15168   15169   15167   15168   15170
   15167   15165   15173   15168   15170   15182   15168   15170   15172
   15168   15170   15171   15169   15168   15170   15170   15182   15185
   15170   15182   15184   15170   15182   15183   15171   15170   15182
   15171   15170   15172   15172   15170   15182   15173   15176   15177
   15174   15173   15176   15174   15173   15175   15175   15173   15176
   15176   15177   15178   15176   15177   15179   15177   15179   15219
   15177   15179   15181   15177   15179   15180   15178   15177   15179
   15179   15219   15222   15179   15219   15221   15179   15219   15220
   15180   15179   15219   15180   15179   15181   15181   15179   15219
   15182   15185   15188   15182   15185   15187   15182   15185   15186
   15183   15182   15185   15183   15182   15184   15184   15182   15185
   15185   15188   15191   15185   15188   15190   15185   15188   15189
   15186   15185   15188   15186   15185   15187   15187   15185   15188
   15188   15191   15194   15188   15191   15193   15188   15191   15192
   15189   15188   15191   15189   15188   15190   15190   15188   15191
   15191   15194   15197   15191   15194   15196   15191   15194   15195
   15192   15191   15194   15192   15191   15193   15193   15191   15194
   15194   15197   15200   15194   15197   15199   15194   15197   15198
   15195   15194   15197   15195   15194   15196   15196   15194   15197
   15197   15200   15203   15197   15200   15202   15197   15200   15201
   15198   15197   15200   15198   15197   15199   15199   15197   15200
   15200   15203   15206   15200   15203   15205   15200   15203   15204
   15201   15200   15203   15201   15200   15202   15202   15200   15203
   15203   15206   15209   15203   15206   15208   15203   15206   15207
   15204   15203   15206   15204   15203   15205   15205   15203   15206
   15206   15209   15212   15206   15209   15211   15206   15209   15210
   15207   15206   15209   15207   15206   15208   15208   15206   15209
   15209   15212   15215   15209   15212   15214   15209   15212   15213
   15210   15209   15212   15210   15209   15211   15211   15209   15212
   15212   15215   15218   15212   15215   15217   15212   15215   15216
   15213   15212   15215   15213   15212   15214   15214   15212   15215
   15216   15215   15218   15216   15215   15217   15217   15215   15218
   15219   15222   15225   15219   15222   15224   15219   15222   15223
   15220   15219   15222   15220   15219   15221   15221   15219   15222
   15222   15225   15228   15222   15225   15227   15222   15225   15226
   15223   15222   15225   15223   15222   15224   15224   15222   15225
   15225   15228   15231   15225   15228   15230   15225   15228   15229
   15226   15225   15228   15226   15225   15227   15227   15225   15228
   15228   15231   15234   15228   15231   15233   15228   15231   15232
   15229   15228   15231   15229   15228   15230   15230   15228   15231
   15231   15234   15237   15231   15234   15236   15231   15234   15235
   15232   15231   15234   15232   15231   15233   15233   15231   15234
   15234   15237   15240   15234   15237   15239   15234   15237   15238
   15235   15234   15237   15235   15234   15236   15236   15234   15237
   15237   15240   15243   15237   15240   15242   15237   15240   15241
   15238   15237   15240   15238   15237   15239   15239   15237   15240
   15240   15243   15246   15240   15243   15245   15240   15243   15244
   15241   15240   15243   15241   15240   15242   15242   15240   15243
   15243   15246   15249   15243   15246   15248   15243   15246   15247
   15244   15243   15246   15244   15243   15245   15245   15243   15246
   15246   15249   15252   15246   15249   15251   15246   15249   15250
   15247   15246   15249   15247   15246   15248   15248   15246   15249
   15249   15252   15255   15249   15252   15254   15249   15252   15253
   15250   15249   15252   15250   15249   15251   15251   15249   15252
   15253   15252   15255   15253   15252   15254   15254   15252   15255
   15256   15269   15272   15256   15269   15271   15256   15269   15270
   15256   15265   15268   15256   15265   15267   15256   15265   15266
   15256   15261   15264   15256   15261   15263   15256   15261   15262
   15256   15257   15260   15256   15257   15259   15256   15257   15258
   15257   15256   15269   15257   15256   15265   15257   15256   15261
   15258   15257   15260   15258   15257   15259   15259   15257   15260
   15261   15256   15269   15261   15256   15265   15262   15261   15264
   15262   15261   15263   15263   15261   15264   15265   15256   15269
   15266   15265   15268   15266   15265   15267   15267   15265   15268
   15269   15272   15279   15269   15272   15274   15269   15272   15273
   15270   15269   15272   15270   15269   15271   15271   15269   15272
   15272   15279   15275   15273   15272   15279   15273   15272   15274
   15274   15272   15279   15275   15278   15280   15276   15275   15277
   15276   15275   15278   15276   15275   15279   15277   15275   15278
   15277   15275   15279   15278   15275   15279   15278   15280   15281
   15278   15280   15282   15278   15280   15283   15280   15283   15285
   15280   15283   15291   15280   15283   15284   15281   15280   15283
   15281   15280   15282   15282   15280   15283   15283   15291   15294
   15283   15291   15293   15283   15291   15292   15283   15285   15286
   15284   15283   15285   15284   15283   15291   15285   15286   15287
   15285   15286   15288   15285   15283   15291   15286   15288   15300
   15286   15288   15290   15286   15288   15289   15287   15286   15288
   15288   15300   15303   15288   15300   15302   15288   15300   15301
   15289   15288   15300   15289   15288   15290   15290   15288   15300
   15291   15294   15295   15292   15291   15294   15292   15291   15293
   15293   15291   15294   15294   15295   15296   15294   15295   15297
   15295   15297   15337   15295   15297   15299   15295   15297   15298
   15296   15295   15297   15297   15337   15340   15297   15337   15339
   15297   15337   15338   15298   15297   15337   15298   15297   15299
   15299   15297   15337   15300   15303   15306   15300   15303   15305
   15300   15303   15304   15301   15300   15303   15301   15300   15302
   15302   15300   15303   15303   15306   15309   15303   15306   15308
   15303   15306   15307   15304   15303   15306   15304   15303   15305
   15305   15303   15306   15306   15309   15312   15306   15309   15311
   15306   15309   15310   15307   15306   15309   15307   15306   15308
   15308   15306   15309   15309   15312   15315   15309   15312   15314
   15309   15312   15313   15310   15309   15312   15310   15309   15311
   15311   15309   15312   15312   15315   15318   15312   15315   15317
   15312   15315   15316   15313   15312   15315   15313   15312   15314
   15314   15312   15315   15315   15318   15321   15315   15318   15320
   15315   15318   15319   15316   15315   15318   15316   15315   15317
   15317   15315   15318   15318   15321   15324   15318   15321   15323
   15318   15321   15322   15319   15318   15321   15319   15318   15320
   15320   15318   15321   15321   15324   15327   15321   15324   15326
   15321   15324   15325   15322   15321   15324   15322   15321   15323
   15323   15321   15324   15324   15327   15330   15324   15327   15329
   15324   15327   15328   15325   15324   15327   15325   15324   15326
   15326   15324   15327   15327   15330   15333   15327   15330   15332
   15327   15330   15331   15328   15327   15330   15328   15327   15329
   15329   15327   15330   15330   15333   15336   15330   15333   15335
   15330   15333   15334   15331   15330   15333   15331   15330   15332
   15332   15330   15333   15334   15333   15336   15334   15333   15335
   15335   15333   15336   15337   15340   15343   15337   15340   15342
   15337   15340   15341   15338   15337   15340   15338   15337   15339
   15339   15337   15340   15340   15343   15346   15340   15343   15345
   15340   15343   15344   15341   15340   15343   15341   15340   15342
   15342   15340   15343   15343   15346   15349   15343   15346   15348
   15343   15346   15347   15344   15343   15346   15344   15343   15345
   15345   15343   15346   15346   15349   15352   15346   15349   15351
   15346   15349   15350   15347   15346   15349   15347   15346   15348
   15348   15346   15349   15349   15352   15355   15349   15352   15354
   15349   15352   15353   15350   15349   15352   15350   15349   15351
   15351   15349   15352   15352   15355   15358   15352   15355   15357
   15352   15355   15356   15353   15352   15355   15353   15352   15354
   15354   15352   15355   15355   15358   15361   15355   15358   15360
   15355   15358   15359   15356   15355   15358   15356   15355   15357
   15357   15355   15358   15358   15361   15364   15358   15361   15363
   15358   15361   15362   15359   15358   15361   15359   15358   15360
   15360   15358   15361   15361   15364   15367   15361   15364   15366
   15361   15364   15365   15362   15361   15364   15362   15361   15363
   15363   15361   15364   15364   15367   15370   15364   15367   15369
   15364   15367   15368   15365   15364   15367   15365   15364   15366
   15366   15364   15367   15367   15370   15373   15367   15370   15372
   15367   15370   15371   15368   15367   15370   15368   15367   15369
   15369   15367   15370   15371   15370   15373   15371   15370   15372
   15372   15370   15373   15374   15387   15390   15374   15387   15389
   15374   15387   15388   15374   15383   15386   15374   15383   15385
   15374   15383   15384   15374   15379   15382   15374   15379   15381
   15374   15379   15380   15374   15375   15378   15374   15375   15377
   15374   15375   15376   15375   15374   15387   15375   15374   15383
   15375   15374   15379   15376   15375   15378   15376   15375   15377
   15377   15375   15378   15379   15374   15387   15379   15374   15383
   15380   15379   15382   15380   15379   15381   15381   15379   15382
   15383   15374   15387   15384   15383   15386   15384   15383   15385
   15385   15383   15386   15387   15390   15397   15387   15390   15392
   15387   15390   15391   15388   15387   15390   15388   15387   15389
   15389   15387   15390   15390   15397   15393   15391   15390   15397
   15391   15390   15392   15392   15390   15397   15393   15396   15398
   15394   15393   15395   15394   15393   15396   15394   15393   15397
   15395   15393   15396   15395   15393   15397   15396   15393   15397
   15396   15398   15399   15396   15398   15400   15396   15398   15401
   15398   15401   15403   15398   15401   15409   15398   15401   15402
   15399   15398   15401   15399   15398   15400   15400   15398   15401
   15401   15409   15412   15401   15409   15411   15401   15409   15410
   15401   15403   15404   15402   15401   15403   15402   15401   15409
   15403   15404   15405   15403   15404   15406   15403   15401   15409
   15404   15406   15418   15404   15406   15408   15404   15406   15407
   15405   15404   15406   15406   15418   15421   15406   15418   15420
   15406   15418   15419   15407   15406   15418   15407   15406   15408
   15408   15406   15418   15409   15412   15413   15410   15409   15412
   15410   15409   15411   15411   15409   15412   15412   15413   15414
   15412   15413   15415   15413   15415   15455   15413   15415   15417
   15413   15415   15416   15414   15413   15415   15415   15455   15458
   15415   15455   15457   15415   15455   15456   15416   15415   15455
   15416   15415   15417   15417   15415   15455   15418   15421   15424
   15418   15421   15423   15418   15421   15422   15419   15418   15421
   15419   15418   15420   15420   15418   15421   15421   15424   15427
   15421   15424   15426   15421   15424   15425   15422   15421   15424
   15422   15421   15423   15423   15421   15424   15424   15427   15430
   15424   15427   15429   15424   15427   15428   15425   15424   15427
   15425   15424   15426   15426   15424   15427   15427   15430   15433
   15427   15430   15432   15427   15430   15431   15428   15427   15430
   15428   15427   15429   15429   15427   15430   15430   15433   15436
   15430   15433   15435   15430   15433   15434   15431   15430   15433
   15431   15430   15432   15432   15430   15433   15433   15436   15439
   15433   15436   15438   15433   15436   15437   15434   15433   15436
   15434   15433   15435   15435   15433   15436   15436   15439   15442
   15436   15439   15441   15436   15439   15440   15437   15436   15439
   15437   15436   15438   15438   15436   15439   15439   15442   15445
   15439   15442   15444   15439   15442   15443   15440   15439   15442
   15440   15439   15441   15441   15439   15442   15442   15445   15448
   15442   15445   15447   15442   15445   15446   15443   15442   15445
   15443   15442   15444   15444   15442   15445   15445   15448   15451
   15445   15448   15450   15445   15448   15449   15446   15445   15448
   15446   15445   15447   15447   15445   15448   15448   15451   15454
   15448   15451   15453   15448   15451   15452   15449   15448   15451
   15449   15448   15450   15450   15448   15451   15452   15451   15454
   15452   15451   15453   15453   15451   15454   15455   15458   15461
   15455   15458   15460   15455   15458   15459   15456   15455   15458
   15456   15455   15457   15457   15455   15458   15458   15461   15464
   15458   15461   15463   15458   15461   15462   15459   15458   15461
   15459   15458   15460   15460   15458   15461   15461   15464   15467
   15461   15464   15466   15461   15464   15465   15462   15461   15464
   15462   15461   15463   15463   15461   15464   15464   15467   15470
   15464   15467   15469   15464   15467   15468   15465   15464   15467
   15465   15464   15466   15466   15464   15467   15467   15470   15473
   15467   15470   15472   15467   15470   15471   15468   15467   15470
   15468   15467   15469   15469   15467   15470   15470   15473   15476
   15470   15473   15475   15470   15473   15474   15471   15470   15473
   15471   15470   15472   15472   15470   15473   15473   15476   15479
   15473   15476   15478   15473   15476   15477   15474   15473   15476
   15474   15473   15475   15475   15473   15476   15476   15479   15482
   15476   15479   15481   15476   15479   15480   15477   15476   15479
   15477   15476   15478   15478   15476   15479   15479   15482   15485
   15479   15482   15484   15479   15482   15483   15480   15479   15482
   15480   15479   15481   15481   15479   15482   15482   15485   15488
   15482   15485   15487   15482   15485   15486   15483   15482   15485
   15483   15482   15484   15484   15482   15485   15485   15488   15491
   15485   15488   15490   15485   15488   15489   15486   15485   15488
   15486   15485   15487   15487   15485   15488   15489   15488   15491
   15489   15488   15490   15490   15488   15491   15492   15505   15508
   15492   15505   15507   15492   15505   15506   15492   15501   15504
   15492   15501   15503   15492   15501   15502   15492   15497   15500
   15492   15497   15499   15492   15497   15498   15492   15493   15496
   15492   15493   15495   15492   15493   15494   15493   15492   15505
   15493   15492   15501   15493   15492   15497   15494   15493   15496
   15494   15493   15495   15495   15493   15496   15497   15492   15505
   15497   15492   15501   15498   15497   15500   15498   15497   15499
   15499   15497   15500   15501   15492   15505   15502   15501   15504
   15502   15501   15503   15503   15501   15504   15505   15508   15515
   15505   15508   15510   15505   15508   15509   15506   15505   15508
   15506   15505   15507   15507   15505   15508   15508   15515   15511
   15509   15508   15515   15509   15508   15510   15510   15508   15515
   15511   15514   15516   15512   15511   15513   15512   15511   15514
   15512   15511   15515   15513   15511   15514   15513   15511   15515
   15514   15511   15515   15514   15516   15517   15514   15516   15518
   15514   15516   15519   15516   15519   15521   15516   15519   15527
   15516   15519   15520   15517   15516   15519   15517   15516   15518
   15518   15516   15519   15519   15527   15530   15519   15527   15529
   15519   15527   15528   15519   15521   15522   15520   15519   15521
   15520   15519   15527   15521   15522   15523   15521   15522   15524
   15521   15519   15527   15522   15524   15536   15522   15524   15526
   15522   15524   15525   15523   15522   15524   15524   15536   15539
   15524   15536   15538   15524   15536   15537   15525   15524   15536
   15525   15524   15526   15526   15524   15536   15527   15530   15531
   15528   15527   15530   15528   15527   15529   15529   15527   15530
   15530   15531   15532   15530   15531   15533   15531   15533   15573
   15531   15533   15535   15531   15533   15534   15532   15531   15533
   15533   15573   15576   15533   15573   15575   15533   15573   15574
   15534   15533   15573   15534   15533   15535   15535   15533   15573
   15536   15539   15542   15536   15539   15541   15536   15539   15540
   15537   15536   15539   15537   15536   15538   15538   15536   15539
   15539   15542   15545   15539   15542   15544   15539   15542   15543
   15540   15539   15542   15540   15539   15541   15541   15539   15542
   15542   15545   15548   15542   15545   15547   15542   15545   15546
   15543   15542   15545   15543   15542   15544   15544   15542   15545
   15545   15548   15551   15545   15548   15550   15545   15548   15549
   15546   15545   15548   15546   15545   15547   15547   15545   15548
   15548   15551   15554   15548   15551   15553   15548   15551   15552
   15549   15548   15551   15549   15548   15550   15550   15548   15551
   15551   15554   15557   15551   15554   15556   15551   15554   15555
   15552   15551   15554   15552   15551   15553   15553   15551   15554
   15554   15557   15560   15554   15557   15559   15554   15557   15558
   15555   15554   15557   15555   15554   15556   15556   15554   15557
   15557   15560   15563   15557   15560   15562   15557   15560   15561
   15558   15557   15560   15558   15557   15559   15559   15557   15560
   15560   15563   15566   15560   15563   15565   15560   15563   15564
   15561   15560   15563   15561   15560   15562   15562   15560   15563
   15563   15566   15569   15563   15566   15568   15563   15566   15567
   15564   15563   15566   15564   15563   15565   15565   15563   15566
   15566   15569   15572   15566   15569   15571   15566   15569   15570
   15567   15566   15569   15567   15566   15568   15568   15566   15569
   15570   15569   15572   15570   15569   15571   15571   15569   15572
   15573   15576   15579   15573   15576   15578   15573   15576   15577
   15574   15573   15576   15574   15573   15575   15575   15573   15576
   15576   15579   15582   15576   15579   15581   15576   15579   15580
   15577   15576   15579   15577   15576   15578   15578   15576   15579
   15579   15582   15585   15579   15582   15584   15579   15582   15583
   15580   15579   15582   15580   15579   15581   15581   15579   15582
   15582   15585   15588   15582   15585   15587   15582   15585   15586
   15583   15582   15585   15583   15582   15584   15584   15582   15585
   15585   15588   15591   15585   15588   15590   15585   15588   15589
   15586   15585   15588   15586   15585   15587   15587   15585   15588
   15588   15591   15594   15588   15591   15593   15588   15591   15592
   15589   15588   15591   15589   15588   15590   15590   15588   15591
   15591   15594   15597   15591   15594   15596   15591   15594   15595
   15592   15591   15594   15592   15591   15593   15593   15591   15594
   15594   15597   15600   15594   15597   15599   15594   15597   15598
   15595   15594   15597   15595   15594   15596   15596   15594   15597
   15597   15600   15603   15597   15600   15602   15597   15600   15601
   15598   15597   15600   15598   15597   15599   15599   15597   15600
   15600   15603   15606   15600   15603   15605   15600   15603   15604
   15601   15600   15603   15601   15600   15602   15602   15600   15603
   15603   15606   15609   15603   15606   15608   15603   15606   15607
   15604   15603   15606   15604   15603   15605   15605   15603   15606
   15607   15606   15609   15607   15606   15608   15608   15606   15609
   15610   15623   15626   15610   15623   15625   15610   15623   15624
   15610   15619   15622   15610   15619   15621   15610   15619   15620
   15610   15615   15618   15610   15615   15617   15610   15615   15616
   15610   15611   15614   15610   15611   15613   15610   15611   15612
   15611   15610   15623   15611   15610   15619   15611   15610   15615
   15612   15611   15614   15612   15611   15613   15613   15611   15614
   15615   15610   15623   15615   15610   15619   15616   15615   15618
   15616   15615   15617   15617   15615   15618   15619   15610   15623
   15620   15619   15622   15620   15619   15621   15621   15619   15622
   15623   15626   15633   15623   15626   15628   15623   15626   15627
   15624   15623   15626   15624   15623   15625   15625   15623   15626
   15626   15633   15629   15627   15626   15633   15627   15626   15628
   15628   15626   15633   15629   15632   15634   15630   15629   15631
   15630   15629   15632   15630   15629   15633   15631   15629   15632
   15631   15629   15633   15632   15629   15633   15632   15634   15635
   15632   15634   15636   15632   15634   15637   15634   15637   15639
   15634   15637   15645   15634   15637   15638   15635   15634   15637
   15635   15634   15636   15636   15634   15637   15637   15645   15648
   15637   15645   15647   15637   15645   15646   15637   15639   15640
   15638   15637   15639   15638   15637   15645   15639   15640   15641
   15639   15640   15642   15639   15637   15645   15640   15642   15654
   15640   15642   15644   15640   15642   15643   15641   15640   15642
   15642   15654   15657   15642   15654   15656   15642   15654   15655
   15643   15642   15654   15643   15642   15644   15644   15642   15654
   15645   15648   15649   15646   15645   15648   15646   15645   15647
   15647   15645   15648   15648   15649   15650   15648   15649   15651
   15649   15651   15691   15649   15651   15653   15649   15651   15652
   15650   15649   15651   15651   15691   15694   15651   15691   15693
   15651   15691   15692   15652   15651   15691   15652   15651   15653
   15653   15651   15691   15654   15657   15660   15654   15657   15659
   15654   15657   15658   15655   15654   15657   15655   15654   15656
   15656   15654   15657   15657   15660   15663   15657   15660   15662
   15657   15660   15661   15658   15657   15660   15658   15657   15659
   15659   15657   15660   15660   15663   15666   15660   15663   15665
   15660   15663   15664   15661   15660   15663   15661   15660   15662
   15662   15660   15663   15663   15666   15669   15663   15666   15668
   15663   15666   15667   15664   15663   15666   15664   15663   15665
   15665   15663   15666   15666   15669   15672   15666   15669   15671
   15666   15669   15670   15667   15666   15669   15667   15666   15668
   15668   15666   15669   15669   15672   15675   15669   15672   15674
   15669   15672   15673   15670   15669   15672   15670   15669   15671
   15671   15669   15672   15672   15675   15678   15672   15675   15677
   15672   15675   15676   15673   15672   15675   15673   15672   15674
   15674   15672   15675   15675   15678   15681   15675   15678   15680
   15675   15678   15679   15676   15675   15678   15676   15675   15677
   15677   15675   15678   15678   15681   15684   15678   15681   15683
   15678   15681   15682   15679   15678   15681   15679   15678   15680
   15680   15678   15681   15681   15684   15687   15681   15684   15686
   15681   15684   15685   15682   15681   15684   15682   15681   15683
   15683   15681   15684   15684   15687   15690   15684   15687   15689
   15684   15687   15688   15685   15684   15687   15685   15684   15686
   15686   15684   15687   15688   15687   15690   15688   15687   15689
   15689   15687   15690   15691   15694   15697   15691   15694   15696
   15691   15694   15695   15692   15691   15694   15692   15691   15693
   15693   15691   15694   15694   15697   15700   15694   15697   15699
   15694   15697   15698   15695   15694   15697   15695   15694   15696
   15696   15694   15697   15697   15700   15703   15697   15700   15702
   15697   15700   15701   15698   15697   15700   15698   15697   15699
   15699   15697   15700   15700   15703   15706   15700   15703   15705
   15700   15703   15704   15701   15700   15703   15701   15700   15702
   15702   15700   15703   15703   15706   15709   15703   15706   15708
   15703   15706   15707   15704   15703   15706   15704   15703   15705
   15705   15703   15706   15706   15709   15712   15706   15709   15711
   15706   15709   15710   15707   15706   15709   15707   15706   15708
   15708   15706   15709   15709   15712   15715   15709   15712   15714
   15709   15712   15713   15710   15709   15712   15710   15709   15711
   15711   15709   15712   15712   15715   15718   15712   15715   15717
   15712   15715   15716   15713   15712   15715   15713   15712   15714
   15714   15712   15715   15715   15718   15721   15715   15718   15720
   15715   15718   15719   15716   15715   15718   15716   15715   15717
   15717   15715   15718   15718   15721   15724   15718   15721   15723
   15718   15721   15722   15719   15718   15721   15719   15718   15720
   15720   15718   15721   15721   15724   15727   15721   15724   15726
   15721   15724   15725   15722   15721   15724   15722   15721   15723
   15723   15721   15724   15725   15724   15727   15725   15724   15726
   15726   15724   15727   15728   15741   15744   15728   15741   15743
   15728   15741   15742   15728   15737   15740   15728   15737   15739
   15728   15737   15738   15728   15733   15736   15728   15733   15735
   15728   15733   15734   15728   15729   15732   15728   15729   15731
   15728   15729   15730   15729   15728   15741   15729   15728   15737
   15729   15728   15733   15730   15729   15732   15730   15729   15731
   15731   15729   15732   15733   15728   15741   15733   15728   15737
   15734   15733   15736   15734   15733   15735   15735   15733   15736
   15737   15728   15741   15738   15737   15740   15738   15737   15739
   15739   15737   15740   15741   15744   15751   15741   15744   15746
   15741   15744   15745   15742   15741   15744   15742   15741   15743
   15743   15741   15744   15744   15751   15747   15745   15744   15751
   15745   15744   15746   15746   15744   15751   15747   15750   15752
   15748   15747   15749   15748   15747   15750   15748   15747   15751
   15749   15747   15750   15749   15747   15751   15750   15747   15751
   15750   15752   15753   15750   15752   15754   15750   15752   15755
   15752   15755   15757   15752   15755   15763   15752   15755   15756
   15753   15752   15755   15753   15752   15754   15754   15752   15755
   15755   15763   15766   15755   15763   15765   15755   15763   15764
   15755   15757   15758   15756   15755   15757   15756   15755   15763
   15757   15758   15759   15757   15758   15760   15757   15755   15763
   15758   15760   15772   15758   15760   15762   15758   15760   15761
   15759   15758   15760   15760   15772   15775   15760   15772   15774
   15760   15772   15773   15761   15760   15772   15761   15760   15762
   15762   15760   15772   15763   15766   15767   15764   15763   15766
   15764   15763   15765   15765   15763   15766   15766   15767   15768
   15766   15767   15769   15767   15769   15809   15767   15769   15771
   15767   15769   15770   15768   15767   15769   15769   15809   15812
   15769   15809   15811   15769   15809   15810   15770   15769   15809
   15770   15769   15771   15771   15769   15809   15772   15775   15778
   15772   15775   15777   15772   15775   15776   15773   15772   15775
   15773   15772   15774   15774   15772   15775   15775   15778   15781
   15775   15778   15780   15775   15778   15779   15776   15775   15778
   15776   15775   15777   15777   15775   15778   15778   15781   15784
   15778   15781   15783   15778   15781   15782   15779   15778   15781
   15779   15778   15780   15780   15778   15781   15781   15784   15787
   15781   15784   15786   15781   15784   15785   15782   15781   15784
   15782   15781   15783   15783   15781   15784   15784   15787   15790
   15784   15787   15789   15784   15787   15788   15785   15784   15787
   15785   15784   15786   15786   15784   15787   15787   15790   15793
   15787   15790   15792   15787   15790   15791   15788   15787   15790
   15788   15787   15789   15789   15787   15790   15790   15793   15796
   15790   15793   15795   15790   15793   15794   15791   15790   15793
   15791   15790   15792   15792   15790   15793   15793   15796   15799
   15793   15796   15798   15793   15796   15797   15794   15793   15796
   15794   15793   15795   15795   15793   15796   15796   15799   15802
   15796   15799   15801   15796   15799   15800   15797   15796   15799
   15797   15796   15798   15798   15796   15799   15799   15802   15805
   15799   15802   15804   15799   15802   15803   15800   15799   15802
   15800   15799   15801   15801   15799   15802   15802   15805   15808
   15802   15805   15807   15802   15805   15806   15803   15802   15805
   15803   15802   15804   15804   15802   15805   15806   15805   15808
   15806   15805   15807   15807   15805   15808   15809   15812   15815
   15809   15812   15814   15809   15812   15813   15810   15809   15812
   15810   15809   15811   15811   15809   15812   15812   15815   15818
   15812   15815   15817   15812   15815   15816   15813   15812   15815
   15813   15812   15814   15814   15812   15815   15815   15818   15821
   15815   15818   15820   15815   15818   15819   15816   15815   15818
   15816   15815   15817   15817   15815   15818   15818   15821   15824
   15818   15821   15823   15818   15821   15822   15819   15818   15821
   15819   15818   15820   15820   15818   15821   15821   15824   15827
   15821   15824   15826   15821   15824   15825   15822   15821   15824
   15822   15821   15823   15823   15821   15824   15824   15827   15830
   15824   15827   15829   15824   15827   15828   15825   15824   15827
   15825   15824   15826   15826   15824   15827   15827   15830   15833
   15827   15830   15832   15827   15830   15831   15828   15827   15830
   15828   15827   15829   15829   15827   15830   15830   15833   15836
   15830   15833   15835   15830   15833   15834   15831   15830   15833
   15831   15830   15832   15832   15830   15833   15833   15836   15839
   15833   15836   15838   15833   15836   15837   15834   15833   15836
   15834   15833   15835   15835   15833   15836   15836   15839   15842
   15836   15839   15841   15836   15839   15840   15837   15836   15839
   15837   15836   15838   15838   15836   15839   15839   15842   15845
   15839   15842   15844   15839   15842   15843   15840   15839   15842
   15840   15839   15841   15841   15839   15842   15843   15842   15845
   15843   15842   15844   15844   15842   15845   15846   15859   15862
   15846   15859   15861   15846   15859   15860   15846   15855   15858
   15846   15855   15857   15846   15855   15856   15846   15851   15854
   15846   15851   15853   15846   15851   15852   15846   15847   15850
   15846   15847   15849   15846   15847   15848   15847   15846   15859
   15847   15846   15855   15847   15846   15851   15848   15847   15850
   15848   15847   15849   15849   15847   15850   15851   15846   15859
   15851   15846   15855   15852   15851   15854   15852   15851   15853
   15853   15851   15854   15855   15846   15859   15856   15855   15858
   15856   15855   15857   15857   15855   15858   15859   15862   15869
   15859   15862   15864   15859   15862   15863   15860   15859   15862
   15860   15859   15861   15861   15859   15862   15862   15869   15865
   15863   15862   15869   15863   15862   15864   15864   15862   15869
   15865   15868   15870   15866   15865   15867   15866   15865   15868
   15866   15865   15869   15867   15865   15868   15867   15865   15869
   15868   15865   15869   15868   15870   15871   15868   15870   15872
   15868   15870   15873   15870   15873   15875   15870   15873   15881
   15870   15873   15874   15871   15870   15873   15871   15870   15872
   15872   15870   15873   15873   15881   15884   15873   15881   15883
   15873   15881   15882   15873   15875   15876   15874   15873   15875
   15874   15873   15881   15875   15876   15877   15875   15876   15878
   15875   15873   15881   15876   15878   15890   15876   15878   15880
   15876   15878   15879   15877   15876   15878   15878   15890   15893
   15878   15890   15892   15878   15890   15891   15879   15878   15890
   15879   15878   15880   15880   15878   15890   15881   15884   15885
   15882   15881   15884   15882   15881   15883   15883   15881   15884
   15884   15885   15886   15884   15885   15887   15885   15887   15927
   15885   15887   15889   15885   15887   15888   15886   15885   15887
   15887   15927   15930   15887   15927   15929   15887   15927   15928
   15888   15887   15927   15888   15887   15889   15889   15887   15927
   15890   15893   15896   15890   15893   15895   15890   15893   15894
   15891   15890   15893   15891   15890   15892   15892   15890   15893
   15893   15896   15899   15893   15896   15898   15893   15896   15897
   15894   15893   15896   15894   15893   15895   15895   15893   15896
   15896   15899   15902   15896   15899   15901   15896   15899   15900
   15897   15896   15899   15897   15896   15898   15898   15896   15899
   15899   15902   15905   15899   15902   15904   15899   15902   15903
   15900   15899   15902   15900   15899   15901   15901   15899   15902
   15902   15905   15908   15902   15905   15907   15902   15905   15906
   15903   15902   15905   15903   15902   15904   15904   15902   15905
   15905   15908   15911   15905   15908   15910   15905   15908   15909
   15906   15905   15908   15906   15905   15907   15907   15905   15908
   15908   15911   15914   15908   15911   15913   15908   15911   15912
   15909   15908   15911   15909   15908   15910   15910   15908   15911
   15911   15914   15917   15911   15914   15916   15911   15914   15915
   15912   15911   15914   15912   15911   15913   15913   15911   15914
   15914   15917   15920   15914   15917   15919   15914   15917   15918
   15915   15914   15917   15915   15914   15916   15916   15914   15917
   15917   15920   15923   15917   15920   15922   15917   15920   15921
   15918   15917   15920   15918   15917   15919   15919   15917   15920
   15920   15923   15926   15920   15923   15925   15920   15923   15924
   15921   15920   15923   15921   15920   15922   15922   15920   15923
   15924   15923   15926   15924   15923   15925   15925   15923   15926
   15927   15930   15933   15927   15930   15932   15927   15930   15931
   15928   15927   15930   15928   15927   15929   15929   15927   15930
   15930   15933   15936   15930   15933   15935   15930   15933   15934
   15931   15930   15933   15931   15930   15932   15932   15930   15933
   15933   15936   15939   15933   15936   15938   15933   15936   15937
   15934   15933   15936   15934   15933   15935   15935   15933   15936
   15936   15939   15942   15936   15939   15941   15936   15939   15940
   15937   15936   15939   15937   15936   15938   15938   15936   15939
   15939   15942   15945   15939   15942   15944   15939   15942   15943
   15940   15939   15942   15940   15939   15941   15941   15939   15942
   15942   15945   15948   15942   15945   15947   15942   15945   15946
   15943   15942   15945   15943   15942   15944   15944   15942   15945
   15945   15948   15951   15945   15948   15950   15945   15948   15949
   15946   15945   15948   15946   15945   15947   15947   15945   15948
   15948   15951   15954   15948   15951   15953   15948   15951   15952
   15949   15948   15951   15949   15948   15950   15950   15948   15951
   15951   15954   15957   15951   15954   15956   15951   15954   15955
   15952   15951   15954   15952   15951   15953   15953   15951   15954
   15954   15957   15960   15954   15957   15959   15954   15957   15958
   15955   15954   15957   15955   15954   15956   15956   15954   15957
   15957   15960   15963   15957   15960   15962   15957   15960   15961
   15958   15957   15960   15958   15957   15959   15959   15957   15960
   15961   15960   15963   15961   15960   15962   15962   15960   15963
   15964   15977   15980   15964   15977   15979   15964   15977   15978
   15964   15973   15976   15964   15973   15975   15964   15973   15974
   15964   15969   15972   15964   15969   15971   15964   15969   15970
   15964   15965   15968   15964   15965   15967   15964   15965   15966
   15965   15964   15977   15965   15964   15973   15965   15964   15969
   15966   15965   15968   15966   15965   15967   15967   15965   15968
   15969   15964   15977   15969   15964   15973   15970   15969   15972
   15970   15969   15971   15971   15969   15972   15973   15964   15977
   15974   15973   15976   15974   15973   15975   15975   15973   15976
   15977   15980   15987   15977   15980   15982   15977   15980   15981
   15978   15977   15980   15978   15977   15979   15979   15977   15980
   15980   15987   15983   15981   15980   15987   15981   15980   15982
   15982   15980   15987   15983   15986   15988   15984   15983   15985
   15984   15983   15986   15984   15983   15987   15985   15983   15986
   15985   15983   15987   15986   15983   15987   15986   15988   15989
   15986   15988   15990   15986   15988   15991   15988   15991   15993
   15988   15991   15999   15988   15991   15992   15989   15988   15991
   15989   15988   15990   15990   15988   15991   15991   15999   16002
   15991   15999   16001   15991   15999   16000   15991   15993   15994
   15992   15991   15993   15992   15991   15999   15993   15994   15995
   15993   15994   15996   15993   15991   15999   15994   15996   16008
   15994   15996   15998   15994   15996   15997   15995   15994   15996
   15996   16008   16011   15996   16008   16010   15996   16008   16009
   15997   15996   16008   15997   15996   15998   15998   15996   16008
   15999   16002   16003   16000   15999   16002   16000   15999   16001
   16001   15999   16002   16002   16003   16004   16002   16003   16005
   16003   16005   16045   16003   16005   16007   16003   16005   16006
   16004   16003   16005   16005   16045   16048   16005   16045   16047
   16005   16045   16046   16006   16005   16045   16006   16005   16007
   16007   16005   16045   16008   16011   16014   16008   16011   16013
   16008   16011   16012   16009   16008   16011   16009   16008   16010
   16010   16008   16011   16011   16014   16017   16011   16014   16016
   16011   16014   16015   16012   16011   16014   16012   16011   16013
   16013   16011   16014   16014   16017   16020   16014   16017   16019
   16014   16017   16018   16015   16014   16017   16015   16014   16016
   16016   16014   16017   16017   16020   16023   16017   16020   16022
   16017   16020   16021   16018   16017   16020   16018   16017   16019
   16019   16017   16020   16020   16023   16026   16020   16023   16025
   16020   16023   16024   16021   16020   16023   16021   16020   16022
   16022   16020   16023   16023   16026   16029   16023   16026   16028
   16023   16026   16027   16024   16023   16026   16024   16023   16025
   16025   16023   16026   16026   16029   16032   16026   16029   16031
   16026   16029   16030   16027   16026   16029   16027   16026   16028
   16028   16026   16029   16029   16032   16035   16029   16032   16034
   16029   16032   16033   16030   16029   16032   16030   16029   16031
   16031   16029   16032   16032   16035   16038   16032   16035   16037
   16032   16035   16036   16033   16032   16035   16033   16032   16034
   16034   16032   16035   16035   16038   16041   16035   16038   16040
   16035   16038   16039   16036   16035   16038   16036   16035   16037
   16037   16035   16038   16038   16041   16044   16038   16041   16043
   16038   16041   16042   16039   16038   16041   16039   16038   16040
   16040   16038   16041   16042   16041   16044   16042   16041   16043
   16043   16041   16044   16045   16048   16051   16045   16048   16050
   16045   16048   16049   16046   16045   16048   16046   16045   16047
   16047   16045   16048   16048   16051   16054   16048   16051   16053
   16048   16051   16052   16049   16048   16051   16049   16048   16050
   16050   16048   16051   16051   16054   16057   16051   16054   16056
   16051   16054   16055   16052   16051   16054   16052   16051   16053
   16053   16051   16054   16054   16057   16060   16054   16057   16059
   16054   16057   16058   16055   16054   16057   16055   16054   16056
   16056   16054   16057   16057   16060   16063   16057   16060   16062
   16057   16060   16061   16058   16057   16060   16058   16057   16059
   16059   16057   16060   16060   16063   16066   16060   16063   16065
   16060   16063   16064   16061   16060   16063   16061   16060   16062
   16062   16060   16063   16063   16066   16069   16063   16066   16068
   16063   16066   16067   16064   16063   16066   16064   16063   16065
   16065   16063   16066   16066   16069   16072   16066   16069   16071
   16066   16069   16070   16067   16066   16069   16067   16066   16068
   16068   16066   16069   16069   16072   16075   16069   16072   16074
   16069   16072   16073   16070   16069   16072   16070   16069   16071
   16071   16069   16072   16072   16075   16078   16072   16075   16077
   16072   16075   16076   16073   16072   16075   16073   16072   16074
   16074   16072   16075   16075   16078   16081   16075   16078   16080
   16075   16078   16079   16076   16075   16078   16076   16075   16077
   16077   16075   16078   16079   16078   16081   16079   16078   16080
   16080   16078   16081   16082   16095   16098   16082   16095   16097
   16082   16095   16096   16082   16091   16094   16082   16091   16093
   16082   16091   16092   16082   16087   16090   16082   16087   16089
   16082   16087   16088   16082   16083   16086   16082   16083   16085
   16082   16083   16084   16083   16082   16095   16083   16082   16091
   16083   16082   16087   16084   16083   16086   16084   16083   16085
   16085   16083   16086   16087   16082   16095   16087   16082   16091
   16088   16087   16090   16088   16087   16089   16089   16087   16090
   16091   16082   16095   16092   16091   16094   16092   16091   16093
   16093   16091   16094   16095   16098   16105   16095   16098   16100
   16095   16098   16099   16096   16095   16098   16096   16095   16097
   16097   16095   16098   16098   16105   16101   16099   16098   16105
   16099   16098   16100   16100   16098   16105   16101   16104   16106
   16102   16101   16103   16102   16101   16104   16102   16101   16105
   16103   16101   16104   16103   16101   16105   16104   16101   16105
   16104   16106   16107   16104   16106   16108   16104   16106   16109
   16106   16109   16111   16106   16109   16117   16106   16109   16110
   16107   16106   16109   16107   16106   16108   16108   16106   16109
   16109   16117   16120   16109   16117   16119   16109   16117   16118
   16109   16111   16112   16110   16109   16111   16110   16109   16117
   16111   16112   16113   16111   16112   16114   16111   16109   16117
   16112   16114   16126   16112   16114   16116   16112   16114   16115
   16113   16112   16114   16114   16126   16129   16114   16126   16128
   16114   16126   16127   16115   16114   16126   16115   16114   16116
   16116   16114   16126   16117   16120   16121   16118   16117   16120
   16118   16117   16119   16119   16117   16120   16120   16121   16122
   16120   16121   16123   16121   16123   16163   16121   16123   16125
   16121   16123   16124   16122   16121   16123   16123   16163   16166
   16123   16163   16165   16123   16163   16164   16124   16123   16163
   16124   16123   16125   16125   16123   16163   16126   16129   16132
   16126   16129   16131   16126   16129   16130   16127   16126   16129
   16127   16126   16128   16128   16126   16129   16129   16132   16135
   16129   16132   16134   16129   16132   16133   16130   16129   16132
   16130   16129   16131   16131   16129   16132   16132   16135   16138
   16132   16135   16137   16132   16135   16136   16133   16132   16135
   16133   16132   16134   16134   16132   16135   16135   16138   16141
   16135   16138   16140   16135   16138   16139   16136   16135   16138
   16136   16135   16137   16137   16135   16138   16138   16141   16144
   16138   16141   16143   16138   16141   16142   16139   16138   16141
   16139   16138   16140   16140   16138   16141   16141   16144   16147
   16141   16144   16146   16141   16144   16145   16142   16141   16144
   16142   16141   16143   16143   16141   16144   16144   16147   16150
   16144   16147   16149   16144   16147   16148   16145   16144   16147
   16145   16144   16146   16146   16144   16147   16147   16150   16153
   16147   16150   16152   16147   16150   16151   16148   16147   16150
   16148   16147   16149   16149   16147   16150   16150   16153   16156
   16150   16153   16155   16150   16153   16154   16151   16150   16153
   16151   16150   16152   16152   16150   16153   16153   16156   16159
   16153   16156   16158   16153   16156   16157   16154   16153   16156
   16154   16153   16155   16155   16153   16156   16156   16159   16162
   16156   16159   16161   16156   16159   16160   16157   16156   16159
   16157   16156   16158   16158   16156   16159   16160   16159   16162
   16160   16159   16161   16161   16159   16162   16163   16166   16169
   16163   16166   16168   16163   16166   16167   16164   16163   16166
   16164   16163   16165   16165   16163   16166   16166   16169   16172
   16166   16169   16171   16166   16169   16170   16167   16166   16169
   16167   16166   16168   16168   16166   16169   16169   16172   16175
   16169   16172   16174   16169   16172   16173   16170   16169   16172
   16170   16169   16171   16171   16169   16172   16172   16175   16178
   16172   16175   16177   16172   16175   16176   16173   16172   16175
   16173   16172   16174   16174   16172   16175   16175   16178   16181
   16175   16178   16180   16175   16178   16179   16176   16175   16178
   16176   16175   16177   16177   16175   16178   16178   16181   16184
   16178   16181   16183   16178   16181   16182   16179   16178   16181
   16179   16178   16180   16180   16178   16181   16181   16184   16187
   16181   16184   16186   16181   16184   16185   16182   16181   16184
   16182   16181   16183   16183   16181   16184   16184   16187   16190
   16184   16187   16189   16184   16187   16188   16185   16184   16187
   16185   16184   16186   16186   16184   16187   16187   16190   16193
   16187   16190   16192   16187   16190   16191   16188   16187   16190
   16188   16187   16189   16189   16187   16190   16190   16193   16196
   16190   16193   16195   16190   16193   16194   16191   16190   16193
   16191   16190   16192   16192   16190   16193   16193   16196   16199
   16193   16196   16198   16193   16196   16197   16194   16193   16196
   16194   16193   16195   16195   16193   16196   16197   16196   16199
   16197   16196   16198   16198   16196   16199   16200   16213   16216
   16200   16213   16215   16200   16213   16214   16200   16209   16212
   16200   16209   16211   16200   16209   16210   16200   16205   16208
   16200   16205   16207   16200   16205   16206   16200   16201   16204
   16200   16201   16203   16200   16201   16202   16201   16200   16213
   16201   16200   16209   16201   16200   16205   16202   16201   16204
   16202   16201   16203   16203   16201   16204   16205   16200   16213
   16205   16200   16209   16206   16205   16208   16206   16205   16207
   16207   16205   16208   16209   16200   16213   16210   16209   16212
   16210   16209   16211   16211   16209   16212   16213   16216   16223
   16213   16216   16218   16213   16216   16217   16214   16213   16216
   16214   16213   16215   16215   16213   16216   16216   16223   16219
   16217   16216   16223   16217   16216   16218   16218   16216   16223
   16219   16222   16224   16220   16219   16221   16220   16219   16222
   16220   16219   16223   16221   16219   16222   16221   16219   16223
   16222   16219   16223   16222   16224   16225   16222   16224   16226
   16222   16224   16227   16224   16227   16229   16224   16227   16235
   16224   16227   16228   16225   16224   16227   16225   16224   16226
   16226   16224   16227   16227   16235   16238   16227   16235   16237
   16227   16235   16236   16227   16229   16230   16228   16227   16229
   16228   16227   16235   16229   16230   16231   16229   16230   16232
   16229   16227   16235   16230   16232   16244   16230   16232   16234
   16230   16232   16233   16231   16230   16232   16232   16244   16247
   16232   16244   16246   16232   16244   16245   16233   16232   16244
   16233   16232   16234   16234   16232   16244   16235   16238   16239
   16236   16235   16238   16236   16235   16237   16237   16235   16238
   16238   16239   16240   16238   16239   16241   16239   16241   16281
   16239   16241   16243   16239   16241   16242   16240   16239   16241
   16241   16281   16284   16241   16281   16283   16241   16281   16282
   16242   16241   16281   16242   16241   16243   16243   16241   16281
   16244   16247   16250   16244   16247   16249   16244   16247   16248
   16245   16244   16247   16245   16244   16246   16246   16244   16247
   16247   16250   16253   16247   16250   16252   16247   16250   16251
   16248   16247   16250   16248   16247   16249   16249   16247   16250
   16250   16253   16256   16250   16253   16255   16250   16253   16254
   16251   16250   16253   16251   16250   16252   16252   16250   16253
   16253   16256   16259   16253   16256   16258   16253   16256   16257
   16254   16253   16256   16254   16253   16255   16255   16253   16256
   16256   16259   16262   16256   16259   16261   16256   16259   16260
   16257   16256   16259   16257   16256   16258   16258   16256   16259
   16259   16262   16265   16259   16262   16264   16259   16262   16263
   16260   16259   16262   16260   16259   16261   16261   16259   16262
   16262   16265   16268   16262   16265   16267   16262   16265   16266
   16263   16262   16265   16263   16262   16264   16264   16262   16265
   16265   16268   16271   16265   16268   16270   16265   16268   16269
   16266   16265   16268   16266   16265   16267   16267   16265   16268
   16268   16271   16274   16268   16271   16273   16268   16271   16272
   16269   16268   16271   16269   16268   16270   16270   16268   16271
   16271   16274   16277   16271   16274   16276   16271   16274   16275
   16272   16271   16274   16272   16271   16273   16273   16271   16274
   16274   16277   16280   16274   16277   16279   16274   16277   16278
   16275   16274   16277   16275   16274   16276   16276   16274   16277
   16278   16277   16280   16278   16277   16279   16279   16277   16280
   16281   16284   16287   16281   16284   16286   16281   16284   16285
   16282   16281   16284   16282   16281   16283   16283   16281   16284
   16284   16287   16290   16284   16287   16289   16284   16287   16288
   16285   16284   16287   16285   16284   16286   16286   16284   16287
   16287   16290   16293   16287   16290   16292   16287   16290   16291
   16288   16287   16290   16288   16287   16289   16289   16287   16290
   16290   16293   16296   16290   16293   16295   16290   16293   16294
   16291   16290   16293   16291   16290   16292   16292   16290   16293
   16293   16296   16299   16293   16296   16298   16293   16296   16297
   16294   16293   16296   16294   16293   16295   16295   16293   16296
   16296   16299   16302   16296   16299   16301   16296   16299   16300
   16297   16296   16299   16297   16296   16298   16298   16296   16299
   16299   16302   16305   16299   16302   16304   16299   16302   16303
   16300   16299   16302   16300   16299   16301   16301   16299   16302
   16302   16305   16308   16302   16305   16307   16302   16305   16306
   16303   16302   16305   16303   16302   16304   16304   16302   16305
   16305   16308   16311   16305   16308   16310   16305   16308   16309
   16306   16305   16308   16306   16305   16307   16307   16305   16308
   16308   16311   16314   16308   16311   16313   16308   16311   16312
   16309   16308   16311   16309   16308   16310   16310   16308   16311
   16311   16314   16317   16311   16314   16316   16311   16314   16315
   16312   16311   16314   16312   16311   16313   16313   16311   16314
   16315   16314   16317   16315   16314   16316   16316   16314   16317
   16318   16331   16334   16318   16331   16333   16318   16331   16332
   16318   16327   16330   16318   16327   16329   16318   16327   16328
   16318   16323   16326   16318   16323   16325   16318   16323   16324
   16318   16319   16322   16318   16319   16321   16318   16319   16320
   16319   16318   16331   16319   16318   16327   16319   16318   16323
   16320   16319   16322   16320   16319   16321   16321   16319   16322
   16323   16318   16331   16323   16318   16327   16324   16323   16326
   16324   16323   16325   16325   16323   16326   16327   16318   16331
   16328   16327   16330   16328   16327   16329   16329   16327   16330
   16331   16334   16341   16331   16334   16336   16331   16334   16335
   16332   16331   16334   16332   16331   16333   16333   16331   16334
   16334   16341   16337   16335   16334   16341   16335   16334   16336
   16336   16334   16341   16337   16340   16342   16338   16337   16339
   16338   16337   16340   16338   16337   16341   16339   16337   16340
   16339   16337   16341   16340   16337   16341   16340   16342   16343
   16340   16342   16344   16340   16342   16345   16342   16345   16347
   16342   16345   16353   16342   16345   16346   16343   16342   16345
   16343   16342   16344   16344   16342   16345   16345   16353   16356
   16345   16353   16355   16345   16353   16354   16345   16347   16348
   16346   16345   16347   16346   16345   16353   16347   16348   16349
   16347   16348   16350   16347   16345   16353   16348   16350   16362
   16348   16350   16352   16348   16350   16351   16349   16348   16350
   16350   16362   16365   16350   16362   16364   16350   16362   16363
   16351   16350   16362   16351   16350   16352   16352   16350   16362
   16353   16356   16357   16354   16353   16356   16354   16353   16355
   16355   16353   16356   16356   16357   16358   16356   16357   16359
   16357   16359   16399   16357   16359   16361   16357   16359   16360
   16358   16357   16359   16359   16399   16402   16359   16399   16401
   16359   16399   16400   16360   16359   16399   16360   16359   16361
   16361   16359   16399   16362   16365   16368   16362   16365   16367
   16362   16365   16366   16363   16362   16365   16363   16362   16364
   16364   16362   16365   16365   16368   16371   16365   16368   16370
   16365   16368   16369   16366   16365   16368   16366   16365   16367
   16367   16365   16368   16368   16371   16374   16368   16371   16373
   16368   16371   16372   16369   16368   16371   16369   16368   16370
   16370   16368   16371   16371   16374   16377   16371   16374   16376
   16371   16374   16375   16372   16371   16374   16372   16371   16373
   16373   16371   16374   16374   16377   16380   16374   16377   16379
   16374   16377   16378   16375   16374   16377   16375   16374   16376
   16376   16374   16377   16377   16380   16383   16377   16380   16382
   16377   16380   16381   16378   16377   16380   16378   16377   16379
   16379   16377   16380   16380   16383   16386   16380   16383   16385
   16380   16383   16384   16381   16380   16383   16381   16380   16382
   16382   16380   16383   16383   16386   16389   16383   16386   16388
   16383   16386   16387   16384   16383   16386   16384   16383   16385
   16385   16383   16386   16386   16389   16392   16386   16389   16391
   16386   16389   16390   16387   16386   16389   16387   16386   16388
   16388   16386   16389   16389   16392   16395   16389   16392   16394
   16389   16392   16393   16390   16389   16392   16390   16389   16391
   16391   16389   16392   16392   16395   16398   16392   16395   16397
   16392   16395   16396   16393   16392   16395   16393   16392   16394
   16394   16392   16395   16396   16395   16398   16396   16395   16397
   16397   16395   16398   16399   16402   16405   16399   16402   16404
   16399   16402   16403   16400   16399   16402   16400   16399   16401
   16401   16399   16402   16402   16405   16408   16402   16405   16407
   16402   16405   16406   16403   16402   16405   16403   16402   16404
   16404   16402   16405   16405   16408   16411   16405   16408   16410
   16405   16408   16409   16406   16405   16408   16406   16405   16407
   16407   16405   16408   16408   16411   16414   16408   16411   16413
   16408   16411   16412   16409   16408   16411   16409   16408   16410
   16410   16408   16411   16411   16414   16417   16411   16414   16416
   16411   16414   16415   16412   16411   16414   16412   16411   16413
   16413   16411   16414   16414   16417   16420   16414   16417   16419
   16414   16417   16418   16415   16414   16417   16415   16414   16416
   16416   16414   16417   16417   16420   16423   16417   16420   16422
   16417   16420   16421   16418   16417   16420   16418   16417   16419
   16419   16417   16420   16420   16423   16426   16420   16423   16425
   16420   16423   16424   16421   16420   16423   16421   16420   16422
   16422   16420   16423   16423   16426   16429   16423   16426   16428
   16423   16426   16427   16424   16423   16426   16424   16423   16425
   16425   16423   16426   16426   16429   16432   16426   16429   16431
   16426   16429   16430   16427   16426   16429   16427   16426   16428
   16428   16426   16429   16429   16432   16435   16429   16432   16434
   16429   16432   16433   16430   16429   16432   16430   16429   16431
   16431   16429   16432   16433   16432   16435   16433   16432   16434
   16434   16432   16435   16436   16449   16452   16436   16449   16451
   16436   16449   16450   16436   16445   16448   16436   16445   16447
   16436   16445   16446   16436   16441   16444   16436   16441   16443
   16436   16441   16442   16436   16437   16440   16436   16437   16439
   16436   16437   16438   16437   16436   16449   16437   16436   16445
   16437   16436   16441   16438   16437   16440   16438   16437   16439
   16439   16437   16440   16441   16436   16449   16441   16436   16445
   16442   16441   16444   16442   16441   16443   16443   16441   16444
   16445   16436   16449   16446   16445   16448   16446   16445   16447
   16447   16445   16448   16449   16452   16459   16449   16452   16454
   16449   16452   16453   16450   16449   16452   16450   16449   16451
   16451   16449   16452   16452   16459   16455   16453   16452   16459
   16453   16452   16454   16454   16452   16459   16455   16458   16460
   16456   16455   16457   16456   16455   16458   16456   16455   16459
   16457   16455   16458   16457   16455   16459   16458   16455   16459
   16458   16460   16461   16458   16460   16462   16458   16460   16463
   16460   16463   16465   16460   16463   16471   16460   16463   16464
   16461   16460   16463   16461   16460   16462   16462   16460   16463
   16463   16471   16474   16463   16471   16473   16463   16471   16472
   16463   16465   16466   16464   16463   16465   16464   16463   16471
   16465   16466   16467   16465   16466   16468   16465   16463   16471
   16466   16468   16480   16466   16468   16470   16466   16468   16469
   16467   16466   16468   16468   16480   16483   16468   16480   16482
   16468   16480   16481   16469   16468   16480   16469   16468   16470
   16470   16468   16480   16471   16474   16475   16472   16471   16474
   16472   16471   16473   16473   16471   16474   16474   16475   16476
   16474   16475   16477   16475   16477   16517   16475   16477   16479
   16475   16477   16478   16476   16475   16477   16477   16517   16520
   16477   16517   16519   16477   16517   16518   16478   16477   16517
   16478   16477   16479   16479   16477   16517   16480   16483   16486
   16480   16483   16485   16480   16483   16484   16481   16480   16483
   16481   16480   16482   16482   16480   16483   16483   16486   16489
   16483   16486   16488   16483   16486   16487   16484   16483   16486
   16484   16483   16485   16485   16483   16486   16486   16489   16492
   16486   16489   16491   16486   16489   16490   16487   16486   16489
   16487   16486   16488   16488   16486   16489   16489   16492   16495
   16489   16492   16494   16489   16492   16493   16490   16489   16492
   16490   16489   16491   16491   16489   16492   16492   16495   16498
   16492   16495   16497   16492   16495   16496   16493   16492   16495
   16493   16492   16494   16494   16492   16495   16495   16498   16501
   16495   16498   16500   16495   16498   16499   16496   16495   16498
   16496   16495   16497   16497   16495   16498   16498   16501   16504
   16498   16501   16503   16498   16501   16502   16499   16498   16501
   16499   16498   16500   16500   16498   16501   16501   16504   16507
   16501   16504   16506   16501   16504   16505   16502   16501   16504
   16502   16501   16503   16503   16501   16504   16504   16507   16510
   16504   16507   16509   16504   16507   16508   16505   16504   16507
   16505   16504   16506   16506   16504   16507   16507   16510   16513
   16507   16510   16512   16507   16510   16511   16508   16507   16510
   16508   16507   16509   16509   16507   16510   16510   16513   16516
   16510   16513   16515   16510   16513   16514   16511   16510   16513
   16511   16510   16512   16512   16510   16513   16514   16513   16516
   16514   16513   16515   16515   16513   16516   16517   16520   16523
   16517   16520   16522   16517   16520   16521   16518   16517   16520
   16518   16517   16519   16519   16517   16520   16520   16523   16526
   16520   16523   16525   16520   16523   16524   16521   16520   16523
   16521   16520   16522   16522   16520   16523   16523   16526   16529
   16523   16526   16528   16523   16526   16527   16524   16523   16526
   16524   16523   16525   16525   16523   16526   16526   16529   16532
   16526   16529   16531   16526   16529   16530   16527   16526   16529
   16527   16526   16528   16528   16526   16529   16529   16532   16535
   16529   16532   16534   16529   16532   16533   16530   16529   16532
   16530   16529   16531   16531   16529   16532   16532   16535   16538
   16532   16535   16537   16532   16535   16536   16533   16532   16535
   16533   16532   16534   16534   16532   16535   16535   16538   16541
   16535   16538   16540   16535   16538   16539   16536   16535   16538
   16536   16535   16537   16537   16535   16538   16538   16541   16544
   16538   16541   16543   16538   16541   16542   16539   16538   16541
   16539   16538   16540   16540   16538   16541   16541   16544   16547
   16541   16544   16546   16541   16544   16545   16542   16541   16544
   16542   16541   16543   16543   16541   16544   16544   16547   16550
   16544   16547   16549   16544   16547   16548   16545   16544   16547
   16545   16544   16546   16546   16544   16547   16547   16550   16553
   16547   16550   16552   16547   16550   16551   16548   16547   16550
   16548   16547   16549   16549   16547   16550   16551   16550   16553
   16551   16550   16552   16552   16550   16553   16554   16567   16570
   16554   16567   16569   16554   16567   16568   16554   16563   16566
   16554   16563   16565   16554   16563   16564   16554   16559   16562
   16554   16559   16561   16554   16559   16560   16554   16555   16558
   16554   16555   16557   16554   16555   16556   16555   16554   16567
   16555   16554   16563   16555   16554   16559   16556   16555   16558
   16556   16555   16557   16557   16555   16558   16559   16554   16567
   16559   16554   16563   16560   16559   16562   16560   16559   16561
   16561   16559   16562   16563   16554   16567   16564   16563   16566
   16564   16563   16565   16565   16563   16566   16567   16570   16577
   16567   16570   16572   16567   16570   16571   16568   16567   16570
   16568   16567   16569   16569   16567   16570   16570   16577   16573
   16571   16570   16577   16571   16570   16572   16572   16570   16577
   16573   16576   16578   16574   16573   16575   16574   16573   16576
   16574   16573   16577   16575   16573   16576   16575   16573   16577
   16576   16573   16577   16576   16578   16579   16576   16578   16580
   16576   16578   16581   16578   16581   16583   16578   16581   16589
   16578   16581   16582   16579   16578   16581   16579   16578   16580
   16580   16578   16581   16581   16589   16592   16581   16589   16591
   16581   16589   16590   16581   16583   16584   16582   16581   16583
   16582   16581   16589   16583   16584   16585   16583   16584   16586
   16583   16581   16589   16584   16586   16598   16584   16586   16588
   16584   16586   16587   16585   16584   16586   16586   16598   16601
   16586   16598   16600   16586   16598   16599   16587   16586   16598
   16587   16586   16588   16588   16586   16598   16589   16592   16593
   16590   16589   16592   16590   16589   16591   16591   16589   16592
   16592   16593   16594   16592   16593   16595   16593   16595   16635
   16593   16595   16597   16593   16595   16596   16594   16593   16595
   16595   16635   16638   16595   16635   16637   16595   16635   16636
   16596   16595   16635   16596   16595   16597   16597   16595   16635
   16598   16601   16604   16598   16601   16603   16598   16601   16602
   16599   16598   16601   16599   16598   16600   16600   16598   16601
   16601   16604   16607   16601   16604   16606   16601   16604   16605
   16602   16601   16604   16602   16601   16603   16603   16601   16604
   16604   16607   16610   16604   16607   16609   16604   16607   16608
   16605   16604   16607   16605   16604   16606   16606   16604   16607
   16607   16610   16613   16607   16610   16612   16607   16610   16611
   16608   16607   16610   16608   16607   16609   16609   16607   16610
   16610   16613   16616   16610   16613   16615   16610   16613   16614
   16611   16610   16613   16611   16610   16612   16612   16610   16613
   16613   16616   16619   16613   16616   16618   16613   16616   16617
   16614   16613   16616   16614   16613   16615   16615   16613   16616
   16616   16619   16622   16616   16619   16621   16616   16619   16620
   16617   16616   16619   16617   16616   16618   16618   16616   16619
   16619   16622   16625   16619   16622   16624   16619   16622   16623
   16620   16619   16622   16620   16619   16621   16621   16619   16622
   16622   16625   16628   16622   16625   16627   16622   16625   16626
   16623   16622   16625   16623   16622   16624   16624   16622   16625
   16625   16628   16631   16625   16628   16630   16625   16628   16629
   16626   16625   16628   16626   16625   16627   16627   16625   16628
   16628   16631   16634   16628   16631   16633   16628   16631   16632
   16629   16628   16631   16629   16628   16630   16630   16628   16631
   16632   16631   16634   16632   16631   16633   16633   16631   16634
   16635   16638   16641   16635   16638   16640   16635   16638   16639
   16636   16635   16638   16636   16635   16637   16637   16635   16638
   16638   16641   16644   16638   16641   16643   16638   16641   16642
   16639   16638   16641   16639   16638   16640   16640   16638   16641
   16641   16644   16647   16641   16644   16646   16641   16644   16645
   16642   16641   16644   16642   16641   16643   16643   16641   16644
   16644   16647   16650   16644   16647   16649   16644   16647   16648
   16645   16644   16647   16645   16644   16646   16646   16644   16647
   16647   16650   16653   16647   16650   16652   16647   16650   16651
   16648   16647   16650   16648   16647   16649   16649   16647   16650
   16650   16653   16656   16650   16653   16655   16650   16653   16654
   16651   16650   16653   16651   16650   16652   16652   16650   16653
   16653   16656   16659   16653   16656   16658   16653   16656   16657
   16654   16653   16656   16654   16653   16655   16655   16653   16656
   16656   16659   16662   16656   16659   16661   16656   16659   16660
   16657   16656   16659   16657   16656   16658   16658   16656   16659
   16659   16662   16665   16659   16662   16664   16659   16662   16663
   16660   16659   16662   16660   16659   16661   16661   16659   16662
   16662   16665   16668   16662   16665   16667   16662   16665   16666
   16663   16662   16665   16663   16662   16664   16664   16662   16665
   16665   16668   16671   16665   16668   16670   16665   16668   16669
   16666   16665   16668   16666   16665   16667   16667   16665   16668
   16669   16668   16671   16669   16668   16670   16670   16668   16671
   16672   16685   16688   16672   16685   16687   16672   16685   16686
   16672   16681   16684   16672   16681   16683   16672   16681   16682
   16672   16677   16680   16672   16677   16679   16672   16677   16678
   16672   16673   16676   16672   16673   16675   16672   16673   16674
   16673   16672   16685   16673   16672   16681   16673   16672   16677
   16674   16673   16676   16674   16673   16675   16675   16673   16676
   16677   16672   16685   16677   16672   16681   16678   16677   16680
   16678   16677   16679   16679   16677   16680   16681   16672   16685
   16682   16681   16684   16682   16681   16683   16683   16681   16684
   16685   16688   16695   16685   16688   16690   16685   16688   16689
   16686   16685   16688   16686   16685   16687   16687   16685   16688
   16688   16695   16691   16689   16688   16695   16689   16688   16690
   16690   16688   16695   16691   16694   16696   16692   16691   16693
   16692   16691   16694   16692   16691   16695   16693   16691   16694
   16693   16691   16695   16694   16691   16695   16694   16696   16697
   16694   16696   16698   16694   16696   16699   16696   16699   16701
   16696   16699   16707   16696   16699   16700   16697   16696   16699
   16697   16696   16698   16698   16696   16699   16699   16707   16710
   16699   16707   16709   16699   16707   16708   16699   16701   16702
   16700   16699   16701   16700   16699   16707   16701   16702   16703
   16701   16702   16704   16701   16699   16707   16702   16704   16716
   16702   16704   16706   16702   16704   16705   16703   16702   16704
   16704   16716   16719   16704   16716   16718   16704   16716   16717
   16705   16704   16716   16705   16704   16706   16706   16704   16716
   16707   16710   16711   16708   16707   16710   16708   16707   16709
   16709   16707   16710   16710   16711   16712   16710   16711   16713
   16711   16713   16753   16711   16713   16715   16711   16713   16714
   16712   16711   16713   16713   16753   16756   16713   16753   16755
   16713   16753   16754   16714   16713   16753   16714   16713   16715
   16715   16713   16753   16716   16719   16722   16716   16719   16721
   16716   16719   16720   16717   16716   16719   16717   16716   16718
   16718   16716   16719   16719   16722   16725   16719   16722   16724
   16719   16722   16723   16720   16719   16722   16720   16719   16721
   16721   16719   16722   16722   16725   16728   16722   16725   16727
   16722   16725   16726   16723   16722   16725   16723   16722   16724
   16724   16722   16725   16725   16728   16731   16725   16728   16730
   16725   16728   16729   16726   16725   16728   16726   16725   16727
   16727   16725   16728   16728   16731   16734   16728   16731   16733
   16728   16731   16732   16729   16728   16731   16729   16728   16730
   16730   16728   16731   16731   16734   16737   16731   16734   16736
   16731   16734   16735   16732   16731   16734   16732   16731   16733
   16733   16731   16734   16734   16737   16740   16734   16737   16739
   16734   16737   16738   16735   16734   16737   16735   16734   16736
   16736   16734   16737   16737   16740   16743   16737   16740   16742
   16737   16740   16741   16738   16737   16740   16738   16737   16739
   16739   16737   16740   16740   16743   16746   16740   16743   16745
   16740   16743   16744   16741   16740   16743   16741   16740   16742
   16742   16740   16743   16743   16746   16749   16743   16746   16748
   16743   16746   16747   16744   16743   16746   16744   16743   16745
   16745   16743   16746   16746   16749   16752   16746   16749   16751
   16746   16749   16750   16747   16746   16749   16747   16746   16748
   16748   16746   16749   16750   16749   16752   16750   16749   16751
   16751   16749   16752   16753   16756   16759   16753   16756   16758
   16753   16756   16757   16754   16753   16756   16754   16753   16755
   16755   16753   16756   16756   16759   16762   16756   16759   16761
   16756   16759   16760   16757   16756   16759   16757   16756   16758
   16758   16756   16759   16759   16762   16765   16759   16762   16764
   16759   16762   16763   16760   16759   16762   16760   16759   16761
   16761   16759   16762   16762   16765   16768   16762   16765   16767
   16762   16765   16766   16763   16762   16765   16763   16762   16764
   16764   16762   16765   16765   16768   16771   16765   16768   16770
   16765   16768   16769   16766   16765   16768   16766   16765   16767
   16767   16765   16768   16768   16771   16774   16768   16771   16773
   16768   16771   16772   16769   16768   16771   16769   16768   16770
   16770   16768   16771   16771   16774   16777   16771   16774   16776
   16771   16774   16775   16772   16771   16774   16772   16771   16773
   16773   16771   16774   16774   16777   16780   16774   16777   16779
   16774   16777   16778   16775   16774   16777   16775   16774   16776
   16776   16774   16777   16777   16780   16783   16777   16780   16782
   16777   16780   16781   16778   16777   16780   16778   16777   16779
   16779   16777   16780   16780   16783   16786   16780   16783   16785
   16780   16783   16784   16781   16780   16783   16781   16780   16782
   16782   16780   16783   16783   16786   16789   16783   16786   16788
   16783   16786   16787   16784   16783   16786   16784   16783   16785
   16785   16783   16786   16787   16786   16789   16787   16786   16788
   16788   16786   16789   16790   16803   16806   16790   16803   16805
   16790   16803   16804   16790   16799   16802   16790   16799   16801
   16790   16799   16800   16790   16795   16798   16790   16795   16797
   16790   16795   16796   16790   16791   16794   16790   16791   16793
   16790   16791   16792   16791   16790   16803   16791   16790   16799
   16791   16790   16795   16792   16791   16794   16792   16791   16793
   16793   16791   16794   16795   16790   16803   16795   16790   16799
   16796   16795   16798   16796   16795   16797   16797   16795   16798
   16799   16790   16803   16800   16799   16802   16800   16799   16801
   16801   16799   16802   16803   16806   16813   16803   16806   16808
   16803   16806   16807   16804   16803   16806   16804   16803   16805
   16805   16803   16806   16806   16813   16809   16807   16806   16813
   16807   16806   16808   16808   16806   16813   16809   16812   16814
   16810   16809   16811   16810   16809   16812   16810   16809   16813
   16811   16809   16812   16811   16809   16813   16812   16809   16813
   16812   16814   16815   16812   16814   16816   16812   16814   16817
   16814   16817   16819   16814   16817   16825   16814   16817   16818
   16815   16814   16817   16815   16814   16816   16816   16814   16817
   16817   16825   16828   16817   16825   16827   16817   16825   16826
   16817   16819   16820   16818   16817   16819   16818   16817   16825
   16819   16820   16821   16819   16820   16822   16819   16817   16825
   16820   16822   16834   16820   16822   16824   16820   16822   16823
   16821   16820   16822   16822   16834   16837   16822   16834   16836
   16822   16834   16835   16823   16822   16834   16823   16822   16824
   16824   16822   16834   16825   16828   16829   16826   16825   16828
   16826   16825   16827   16827   16825   16828   16828   16829   16830
   16828   16829   16831   16829   16831   16871   16829   16831   16833
   16829   16831   16832   16830   16829   16831   16831   16871   16874
   16831   16871   16873   16831   16871   16872   16832   16831   16871
   16832   16831   16833   16833   16831   16871   16834   16837   16840
   16834   16837   16839   16834   16837   16838   16835   16834   16837
   16835   16834   16836   16836   16834   16837   16837   16840   16843
   16837   16840   16842   16837   16840   16841   16838   16837   16840
   16838   16837   16839   16839   16837   16840   16840   16843   16846
   16840   16843   16845   16840   16843   16844   16841   16840   16843
   16841   16840   16842   16842   16840   16843   16843   16846   16849
   16843   16846   16848   16843   16846   16847   16844   16843   16846
   16844   16843   16845   16845   16843   16846   16846   16849   16852
   16846   16849   16851   16846   16849   16850   16847   16846   16849
   16847   16846   16848   16848   16846   16849   16849   16852   16855
   16849   16852   16854   16849   16852   16853   16850   16849   16852
   16850   16849   16851   16851   16849   16852   16852   16855   16858
   16852   16855   16857   16852   16855   16856   16853   16852   16855
   16853   16852   16854   16854   16852   16855   16855   16858   16861
   16855   16858   16860   16855   16858   16859   16856   16855   16858
   16856   16855   16857   16857   16855   16858   16858   16861   16864
   16858   16861   16863   16858   16861   16862   16859   16858   16861
   16859   16858   16860   16860   16858   16861   16861   16864   16867
   16861   16864   16866   16861   16864   16865   16862   16861   16864
   16862   16861   16863   16863   16861   16864   16864   16867   16870
   16864   16867   16869   16864   16867   16868   16865   16864   16867
   16865   16864   16866   16866   16864   16867   16868   16867   16870
   16868   16867   16869   16869   16867   16870   16871   16874   16877
   16871   16874   16876   16871   16874   16875   16872   16871   16874
   16872   16871   16873   16873   16871   16874   16874   16877   16880
   16874   16877   16879   16874   16877   16878   16875   16874   16877
   16875   16874   16876   16876   16874   16877   16877   16880   16883
   16877   16880   16882   16877   16880   16881   16878   16877   16880
   16878   16877   16879   16879   16877   16880   16880   16883   16886
   16880   16883   16885   16880   16883   16884   16881   16880   16883
   16881   16880   16882   16882   16880   16883   16883   16886   16889
   16883   16886   16888   16883   16886   16887   16884   16883   16886
   16884   16883   16885   16885   16883   16886   16886   16889   16892
   16886   16889   16891   16886   16889   16890   16887   16886   16889
   16887   16886   16888   16888   16886   16889   16889   16892   16895
   16889   16892   16894   16889   16892   16893   16890   16889   16892
   16890   16889   16891   16891   16889   16892   16892   16895   16898
   16892   16895   16897   16892   16895   16896   16893   16892   16895
   16893   16892   16894   16894   16892   16895   16895   16898   16901
   16895   16898   16900   16895   16898   16899   16896   16895   16898
   16896   16895   16897   16897   16895   16898   16898   16901   16904
   16898   16901   16903   16898   16901   16902   16899   16898   16901
   16899   16898   16900   16900   16898   16901   16901   16904   16907
   16901   16904   16906   16901   16904   16905   16902   16901   16904
   16902   16901   16903   16903   16901   16904   16905   16904   16907
   16905   16904   16906   16906   16904   16907   16908   16921   16924
   16908   16921   16923   16908   16921   16922   16908   16917   16920
   16908   16917   16919   16908   16917   16918   16908   16913   16916
   16908   16913   16915   16908   16913   16914   16908   16909   16912
   16908   16909   16911   16908   16909   16910   16909   16908   16921
   16909   16908   16917   16909   16908   16913   16910   16909   16912
   16910   16909   16911   16911   16909   16912   16913   16908   16921
   16913   16908   16917   16914   16913   16916   16914   16913   16915
   16915   16913   16916   16917   16908   16921   16918   16917   16920
   16918   16917   16919   16919   16917   16920   16921   16924   16931
   16921   16924   16926   16921   16924   16925   16922   16921   16924
   16922   16921   16923   16923   16921   16924   16924   16931   16927
   16925   16924   16931   16925   16924   16926   16926   16924   16931
   16927   16930   16932   16928   16927   16929   16928   16927   16930
   16928   16927   16931   16929   16927   16930   16929   16927   16931
   16930   16927   16931   16930   16932   16933   16930   16932   16934
   16930   16932   16935   16932   16935   16937   16932   16935   16943
   16932   16935   16936   16933   16932   16935   16933   16932   16934
   16934   16932   16935   16935   16943   16946   16935   16943   16945
   16935   16943   16944   16935   16937   16938   16936   16935   16937
   16936   16935   16943   16937   16938   16939   16937   16938   16940
   16937   16935   16943   16938   16940   16952   16938   16940   16942
   16938   16940   16941   16939   16938   16940   16940   16952   16955
   16940   16952   16954   16940   16952   16953   16941   16940   16952
   16941   16940   16942   16942   16940   16952   16943   16946   16947
   16944   16943   16946   16944   16943   16945   16945   16943   16946
   16946   16947   16948   16946   16947   16949   16947   16949   16989
   16947   16949   16951   16947   16949   16950   16948   16947   16949
   16949   16989   16992   16949   16989   16991   16949   16989   16990
   16950   16949   16989   16950   16949   16951   16951   16949   16989
   16952   16955   16958   16952   16955   16957   16952   16955   16956
   16953   16952   16955   16953   16952   16954   16954   16952   16955
   16955   16958   16961   16955   16958   16960   16955   16958   16959
   16956   16955   16958   16956   16955   16957   16957   16955   16958
   16958   16961   16964   16958   16961   16963   16958   16961   16962
   16959   16958   16961   16959   16958   16960   16960   16958   16961
   16961   16964   16967   16961   16964   16966   16961   16964   16965
   16962   16961   16964   16962   16961   16963   16963   16961   16964
   16964   16967   16970   16964   16967   16969   16964   16967   16968
   16965   16964   16967   16965   16964   16966   16966   16964   16967
   16967   16970   16973   16967   16970   16972   16967   16970   16971
   16968   16967   16970   16968   16967   16969   16969   16967   16970
   16970   16973   16976   16970   16973   16975   16970   16973   16974
   16971   16970   16973   16971   16970   16972   16972   16970   16973
   16973   16976   16979   16973   16976   16978   16973   16976   16977
   16974   16973   16976   16974   16973   16975   16975   16973   16976
   16976   16979   16982   16976   16979   16981   16976   16979   16980
   16977   16976   16979   16977   16976   16978   16978   16976   16979
   16979   16982   16985   16979   16982   16984   16979   16982   16983
   16980   16979   16982   16980   16979   16981   16981   16979   16982
   16982   16985   16988   16982   16985   16987   16982   16985   16986
   16983   16982   16985   16983   16982   16984   16984   16982   16985
   16986   16985   16988   16986   16985   16987   16987   16985   16988
   16989   16992   16995   16989   16992   16994   16989   16992   16993
   16990   16989   16992   16990   16989   16991   16991   16989   16992
   16992   16995   16998   16992   16995   16997   16992   16995   16996
   16993   16992   16995   16993   16992   16994   16994   16992   16995
   16995   16998   17001   16995   16998   17000   16995   16998   16999
   16996   16995   16998   16996   16995   16997   16997   16995   16998
   16998   17001   17004   16998   17001   17003   16998   17001   17002
   16999   16998   17001   16999   16998   17000   17000   16998   17001
   17001   17004   17007   17001   17004   17006   17001   17004   17005
   17002   17001   17004   17002   17001   17003   17003   17001   17004
   17004   17007   17010   17004   17007   17009   17004   17007   17008
   17005   17004   17007   17005   17004   17006   17006   17004   17007
   17007   17010   17013   17007   17010   17012   17007   17010   17011
   17008   17007   17010   17008   17007   17009   17009   17007   17010
   17010   17013   17016   17010   17013   17015   17010   17013   17014
   17011   17010   17013   17011   17010   17012   17012   17010   17013
   17013   17016   17019   17013   17016   17018   17013   17016   17017
   17014   17013   17016   17014   17013   17015   17015   17013   17016
   17016   17019   17022   17016   17019   17021   17016   17019   17020
   17017   17016   17019   17017   17016   17018   17018   17016   17019
   17019   17022   17025   17019   17022   17024   17019   17022   17023
   17020   17019   17022   17020   17019   17021   17021   17019   17022
   17023   17022   17025   17023   17022   17024   17024   17022   17025
   17026   17039   17042   17026   17039   17041   17026   17039   17040
   17026   17035   17038   17026   17035   17037   17026   17035   17036
   17026   17031   17034   17026   17031   17033   17026   17031   17032
   17026   17027   17030   17026   17027   17029   17026   17027   17028
   17027   17026   17039   17027   17026   17035   17027   17026   17031
   17028   17027   17030   17028   17027   17029   17029   17027   17030
   17031   17026   17039   17031   17026   17035   17032   17031   17034
   17032   17031   17033   17033   17031   17034   17035   17026   17039
   17036   17035   17038   17036   17035   17037   17037   17035   17038
   17039   17042   17049   17039   17042   17044   17039   17042   17043
   17040   17039   17042   17040   17039   17041   17041   17039   17042
   17042   17049   17045   17043   17042   17049   17043   17042   17044
   17044   17042   17049   17045   17048   17050   17046   17045   17047
   17046   17045   17048   17046   17045   17049   17047   17045   17048
   17047   17045   17049   17048   17045   17049   17048   17050   17051
   17048   17050   17052   17048   17050   17053   17050   17053   17055
   17050   17053   17061   17050   17053   17054   17051   17050   17053
   17051   17050   17052   17052   17050   17053   17053   17061   17064
   17053   17061   17063   17053   17061   17062   17053   17055   17056
   17054   17053   17055   17054   17053   17061   17055   17056   17057
   17055   17056   17058   17055   17053   17061   17056   17058   17070
   17056   17058   17060   17056   17058   17059   17057   17056   17058
   17058   17070   17073   17058   17070   17072   17058   17070   17071
   17059   17058   17070   17059   17058   17060   17060   17058   17070
   17061   17064   17065   17062   17061   17064   17062   17061   17063
   17063   17061   17064   17064   17065   17066   17064   17065   17067
   17065   17067   17107   17065   17067   17069   17065   17067   17068
   17066   17065   17067   17067   17107   17110   17067   17107   17109
   17067   17107   17108   17068   17067   17107   17068   17067   17069
   17069   17067   17107   17070   17073   17076   17070   17073   17075
   17070   17073   17074   17071   17070   17073   17071   17070   17072
   17072   17070   17073   17073   17076   17079   17073   17076   17078
   17073   17076   17077   17074   17073   17076   17074   17073   17075
   17075   17073   17076   17076   17079   17082   17076   17079   17081
   17076   17079   17080   17077   17076   17079   17077   17076   17078
   17078   17076   17079   17079   17082   17085   17079   17082   17084
   17079   17082   17083   17080   17079   17082   17080   17079   17081
   17081   17079   17082   17082   17085   17088   17082   17085   17087
   17082   17085   17086   17083   17082   17085   17083   17082   17084
   17084   17082   17085   17085   17088   17091   17085   17088   17090
   17085   17088   17089   17086   17085   17088   17086   17085   17087
   17087   17085   17088   17088   17091   17094   17088   17091   17093
   17088   17091   17092   17089   17088   17091   17089   17088   17090
   17090   17088   17091   17091   17094   17097   17091   17094   17096
   17091   17094   17095   17092   17091   17094   17092   17091   17093
   17093   17091   17094   17094   17097   17100   17094   17097   17099
   17094   17097   17098   17095   17094   17097   17095   17094   17096
   17096   17094   17097   17097   17100   17103   17097   17100   17102
   17097   17100   17101   17098   17097   17100   17098   17097   17099
   17099   17097   17100   17100   17103   17106   17100   17103   17105
   17100   17103   17104   17101   17100   17103   17101   17100   17102
   17102   17100   17103   17104   17103   17106   17104   17103   17105
   17105   17103   17106   17107   17110   17113   17107   17110   17112
   17107   17110   17111   17108   17107   17110   17108   17107   17109
   17109   17107   17110   17110   17113   17116   17110   17113   17115
   17110   17113   17114   17111   17110   17113   17111   17110   17112
   17112   17110   17113   17113   17116   17119   17113   17116   17118
   17113   17116   17117   17114   17113   17116   17114   17113   17115
   17115   17113   17116   17116   17119   17122   17116   17119   17121
   17116   17119   17120   17117   17116   17119   17117   17116   17118
   17118   17116   17119   17119   17122   17125   17119   17122   17124
   17119   17122   17123   17120   17119   17122   17120   17119   17121
   17121   17119   17122   17122   17125   17128   17122   17125   17127
   17122   17125   17126   17123   17122   17125   17123   17122   17124
   17124   17122   17125   17125   17128   17131   17125   17128   17130
   17125   17128   17129   17126   17125   17128   17126   17125   17127
   17127   17125   17128   17128   17131   17134   17128   17131   17133
   17128   17131   17132   17129   17128   17131   17129   17128   17130
   17130   17128   17131   17131   17134   17137   17131   17134   17136
   17131   17134   17135   17132   17131   17134   17132   17131   17133
   17133   17131   17134   17134   17137   17140   17134   17137   17139
   17134   17137   17138   17135   17134   17137   17135   17134   17136
   17136   17134   17137   17137   17140   17143   17137   17140   17142
   17137   17140   17141   17138   17137   17140   17138   17137   17139
   17139   17137   17140   17141   17140   17143   17141   17140   17142
   17142   17140   17143   17144   17157   17160   17144   17157   17159
   17144   17157   17158   17144   17153   17156   17144   17153   17155
   17144   17153   17154   17144   17149   17152   17144   17149   17151
   17144   17149   17150   17144   17145   17148   17144   17145   17147
   17144   17145   17146   17145   17144   17157   17145   17144   17153
   17145   17144   17149   17146   17145   17148   17146   17145   17147
   17147   17145   17148   17149   17144   17157   17149   17144   17153
   17150   17149   17152   17150   17149   17151   17151   17149   17152
   17153   17144   17157   17154   17153   17156   17154   17153   17155
   17155   17153   17156   17157   17160   17167   17157   17160   17162
   17157   17160   17161   17158   17157   17160   17158   17157   17159
   17159   17157   17160   17160   17167   17163   17161   17160   17167
   17161   17160   17162   17162   17160   17167   17163   17166   17168
   17164   17163   17165   17164   17163   17166   17164   17163   17167
   17165   17163   17166   17165   17163   17167   17166   17163   17167
   17166   17168   17169   17166   17168   17170   17166   17168   17171
   17168   17171   17173   17168   17171   17179   17168   17171   17172
   17169   17168   17171   17169   17168   17170   17170   17168   17171
   17171   17179   17182   17171   17179   17181   17171   17179   17180
   17171   17173   17174   17172   17171   17173   17172   17171   17179
   17173   17174   17175   17173   17174   17176   17173   17171   17179
   17174   17176   17188   17174   17176   17178   17174   17176   17177
   17175   17174   17176   17176   17188   17191   17176   17188   17190
   17176   17188   17189   17177   17176   17188   17177   17176   17178
   17178   17176   17188   17179   17182   17183   17180   17179   17182
   17180   17179   17181   17181   17179   17182   17182   17183   17184
   17182   17183   17185   17183   17185   17225   17183   17185   17187
   17183   17185   17186   17184   17183   17185   17185   17225   17228
   17185   17225   17227   17185   17225   17226   17186   17185   17225
   17186   17185   17187   17187   17185   17225   17188   17191   17194
   17188   17191   17193   17188   17191   17192   17189   17188   17191
   17189   17188   17190   17190   17188   17191   17191   17194   17197
   17191   17194   17196   17191   17194   17195   17192   17191   17194
   17192   17191   17193   17193   17191   17194   17194   17197   17200
   17194   17197   17199   17194   17197   17198   17195   17194   17197
   17195   17194   17196   17196   17194   17197   17197   17200   17203
   17197   17200   17202   17197   17200   17201   17198   17197   17200
   17198   17197   17199   17199   17197   17200   17200   17203   17206
   17200   17203   17205   17200   17203   17204   17201   17200   17203
   17201   17200   17202   17202   17200   17203   17203   17206   17209
   17203   17206   17208   17203   17206   17207   17204   17203   17206
   17204   17203   17205   17205   17203   17206   17206   17209   17212
   17206   17209   17211   17206   17209   17210   17207   17206   17209
   17207   17206   17208   17208   17206   17209   17209   17212   17215
   17209   17212   17214   17209   17212   17213   17210   17209   17212
   17210   17209   17211   17211   17209   17212   17212   17215   17218
   17212   17215   17217   17212   17215   17216   17213   17212   17215
   17213   17212   17214   17214   17212   17215   17215   17218   17221
   17215   17218   17220   17215   17218   17219   17216   17215   17218
   17216   17215   17217   17217   17215   17218   17218   17221   17224
   17218   17221   17223   17218   17221   17222   17219   17218   17221
   17219   17218   17220   17220   17218   17221   17222   17221   17224
   17222   17221   17223   17223   17221   17224   17225   17228   17231
   17225   17228   17230   17225   17228   17229   17226   17225   17228
   17226   17225   17227   17227   17225   17228   17228   17231   17234
   17228   17231   17233   17228   17231   17232   17229   17228   17231
   17229   17228   17230   17230   17228   17231   17231   17234   17237
   17231   17234   17236   17231   17234   17235   17232   17231   17234
   17232   17231   17233   17233   17231   17234   17234   17237   17240
   17234   17237   17239   17234   17237   17238   17235   17234   17237
   17235   17234   17236   17236   17234   17237   17237   17240   17243
   17237   17240   17242   17237   17240   17241   17238   17237   17240
   17238   17237   17239   17239   17237   17240   17240   17243   17246
   17240   17243   17245   17240   17243   17244   17241   17240   17243
   17241   17240   17242   17242   17240   17243   17243   17246   17249
   17243   17246   17248   17243   17246   17247   17244   17243   17246
   17244   17243   17245   17245   17243   17246   17246   17249   17252
   17246   17249   17251   17246   17249   17250   17247   17246   17249
   17247   17246   17248   17248   17246   17249   17249   17252   17255
   17249   17252   17254   17249   17252   17253   17250   17249   17252
   17250   17249   17251   17251   17249   17252   17252   17255   17258
   17252   17255   17257   17252   17255   17256   17253   17252   17255
   17253   17252   17254   17254   17252   17255   17255   17258   17261
   17255   17258   17260   17255   17258   17259   17256   17255   17258
   17256   17255   17257   17257   17255   17258   17259   17258   17261
   17259   17258   17260   17260   17258   17261   17262   17275   17278
   17262   17275   17277   17262   17275   17276   17262   17271   17274
   17262   17271   17273   17262   17271   17272   17262   17267   17270
   17262   17267   17269   17262   17267   17268   17262   17263   17266
   17262   17263   17265   17262   17263   17264   17263   17262   17275
   17263   17262   17271   17263   17262   17267   17264   17263   17266
   17264   17263   17265   17265   17263   17266   17267   17262   17275
   17267   17262   17271   17268   17267   17270   17268   17267   17269
   17269   17267   17270   17271   17262   17275   17272   17271   17274
   17272   17271   17273   17273   17271   17274   17275   17278   17285
   17275   17278   17280   17275   17278   17279   17276   17275   17278
   17276   17275   17277   17277   17275   17278   17278   17285   17281
   17279   17278   17285   17279   17278   17280   17280   17278   17285
   17281   17284   17286   17282   17281   17283   17282   17281   17284
   17282   17281   17285   17283   17281   17284   17283   17281   17285
   17284   17281   17285   17284   17286   17287   17284   17286   17288
   17284   17286   17289   17286   17289   17291   17286   17289   17297
   17286   17289   17290   17287   17286   17289   17287   17286   17288
   17288   17286   17289   17289   17297   17300   17289   17297   17299
   17289   17297   17298   17289   17291   17292   17290   17289   17291
   17290   17289   17297   17291   17292   17293   17291   17292   17294
   17291   17289   17297   17292   17294   17306   17292   17294   17296
   17292   17294   17295   17293   17292   17294   17294   17306   17309
   17294   17306   17308   17294   17306   17307   17295   17294   17306
   17295   17294   17296   17296   17294   17306   17297   17300   17301
   17298   17297   17300   17298   17297   17299   17299   17297   17300
   17300   17301   17302   17300   17301   17303   17301   17303   17343
   17301   17303   17305   17301   17303   17304   17302   17301   17303
   17303   17343   17346   17303   17343   17345   17303   17343   17344
   17304   17303   17343   17304   17303   17305   17305   17303   17343
   17306   17309   17312   17306   17309   17311   17306   17309   17310
   17307   17306   17309   17307   17306   17308   17308   17306   17309
   17309   17312   17315   17309   17312   17314   17309   17312   17313
   17310   17309   17312   17310   17309   17311   17311   17309   17312
   17312   17315   17318   17312   17315   17317   17312   17315   17316
   17313   17312   17315   17313   17312   17314   17314   17312   17315
   17315   17318   17321   17315   17318   17320   17315   17318   17319
   17316   17315   17318   17316   17315   17317   17317   17315   17318
   17318   17321   17324   17318   17321   17323   17318   17321   17322
   17319   17318   17321   17319   17318   17320   17320   17318   17321
   17321   17324   17327   17321   17324   17326   17321   17324   17325
   17322   17321   17324   17322   17321   17323   17323   17321   17324
   17324   17327   17330   17324   17327   17329   17324   17327   17328
   17325   17324   17327   17325   17324   17326   17326   17324   17327
   17327   17330   17333   17327   17330   17332   17327   17330   17331
   17328   17327   17330   17328   17327   17329   17329   17327   17330
   17330   17333   17336   17330   17333   17335   17330   17333   17334
   17331   17330   17333   17331   17330   17332   17332   17330   17333
   17333   17336   17339   17333   17336   17338   17333   17336   17337
   17334   17333   17336   17334   17333   17335   17335   17333   17336
   17336   17339   17342   17336   17339   17341   17336   17339   17340
   17337   17336   17339   17337   17336   17338   17338   17336   17339
   17340   17339   17342   17340   17339   17341   17341   17339   17342
   17343   17346   17349   17343   17346   17348   17343   17346   17347
   17344   17343   17346   17344   17343   17345   17345   17343   17346
   17346   17349   17352   17346   17349   17351   17346   17349   17350
   17347   17346   17349   17347   17346   17348   17348   17346   17349
   17349   17352   17355   17349   17352   17354   17349   17352   17353
   17350   17349   17352   17350   17349   17351   17351   17349   17352
   17352   17355   17358   17352   17355   17357   17352   17355   17356
   17353   17352   17355   17353   17352   17354   17354   17352   17355
   17355   17358   17361   17355   17358   17360   17355   17358   17359
   17356   17355   17358   17356   17355   17357   17357   17355   17358
   17358   17361   17364   17358   17361   17363   17358   17361   17362
   17359   17358   17361   17359   17358   17360   17360   17358   17361
   17361   17364   17367   17361   17364   17366   17361   17364   17365
   17362   17361   17364   17362   17361   17363   17363   17361   17364
   17364   17367   17370   17364   17367   17369   17364   17367   17368
   17365   17364   17367   17365   17364   17366   17366   17364   17367
   17367   17370   17373   17367   17370   17372   17367   17370   17371
   17368   17367   17370   17368   17367   17369   17369   17367   17370
   17370   17373   17376   17370   17373   17375   17370   17373   17374
   17371   17370   17373   17371   17370   17372   17372   17370   17373
   17373   17376   17379   17373   17376   17378   17373   17376   17377
   17374   17373   17376   17374   17373   17375   17375   17373   17376
   17377   17376   17379   17377   17376   17378   17378   17376   17379
   17380   17393   17396   17380   17393   17395   17380   17393   17394
   17380   17389   17392   17380   17389   17391   17380   17389   17390
   17380   17385   17388   17380   17385   17387   17380   17385   17386
   17380   17381   17384   17380   17381   17383   17380   17381   17382
   17381   17380   17393   17381   17380   17389   17381   17380   17385
   17382   17381   17384   17382   17381   17383   17383   17381   17384
   17385   17380   17393   17385   17380   17389   17386   17385   17388
   17386   17385   17387   17387   17385   17388   17389   17380   17393
   17390   17389   17392   17390   17389   17391   17391   17389   17392
   17393   17396   17403   17393   17396   17398   17393   17396   17397
   17394   17393   17396   17394   17393   17395   17395   17393   17396
   17396   17403   17399   17397   17396   17403   17397   17396   17398
   17398   17396   17403   17399   17402   17404   17400   17399   17401
   17400   17399   17402   17400   17399   17403   17401   17399   17402
   17401   17399   17403   17402   17399   17403   17402   17404   17405
   17402   17404   17406   17402   17404   17407   17404   17407   17409
   17404   17407   17415   17404   17407   17408   17405   17404   17407
   17405   17404   17406   17406   17404   17407   17407   17415   17418
   17407   17415   17417   17407   17415   17416   17407   17409   17410
   17408   17407   17409   17408   17407   17415   17409   17410   17411
   17409   17410   17412   17409   17407   17415   17410   17412   17424
   17410   17412   17414   17410   17412   17413   17411   17410   17412
   17412   17424   17427   17412   17424   17426   17412   17424   17425
   17413   17412   17424   17413   17412   17414   17414   17412   17424
   17415   17418   17419   17416   17415   17418   17416   17415   17417
   17417   17415   17418   17418   17419   17420   17418   17419   17421
   17419   17421   17461   17419   17421   17423   17419   17421   17422
   17420   17419   17421   17421   17461   17464   17421   17461   17463
   17421   17461   17462   17422   17421   17461   17422   17421   17423
   17423   17421   17461   17424   17427   17430   17424   17427   17429
   17424   17427   17428   17425   17424   17427   17425   17424   17426
   17426   17424   17427   17427   17430   17433   17427   17430   17432
   17427   17430   17431   17428   17427   17430   17428   17427   17429
   17429   17427   17430   17430   17433   17436   17430   17433   17435
   17430   17433   17434   17431   17430   17433   17431   17430   17432
   17432   17430   17433   17433   17436   17439   17433   17436   17438
   17433   17436   17437   17434   17433   17436   17434   17433   17435
   17435   17433   17436   17436   17439   17442   17436   17439   17441
   17436   17439   17440   17437   17436   17439   17437   17436   17438
   17438   17436   17439   17439   17442   17445   17439   17442   17444
   17439   17442   17443   17440   17439   17442   17440   17439   17441
   17441   17439   17442   17442   17445   17448   17442   17445   17447
   17442   17445   17446   17443   17442   17445   17443   17442   17444
   17444   17442   17445   17445   17448   17451   17445   17448   17450
   17445   17448   17449   17446   17445   17448   17446   17445   17447
   17447   17445   17448   17448   17451   17454   17448   17451   17453
   17448   17451   17452   17449   17448   17451   17449   17448   17450
   17450   17448   17451   17451   17454   17457   17451   17454   17456
   17451   17454   17455   17452   17451   17454   17452   17451   17453
   17453   17451   17454   17454   17457   17460   17454   17457   17459
   17454   17457   17458   17455   17454   17457   17455   17454   17456
   17456   17454   17457   17458   17457   17460   17458   17457   17459
   17459   17457   17460   17461   17464   17467   17461   17464   17466
   17461   17464   17465   17462   17461   17464   17462   17461   17463
   17463   17461   17464   17464   17467   17470   17464   17467   17469
   17464   17467   17468   17465   17464   17467   17465   17464   17466
   17466   17464   17467   17467   17470   17473   17467   17470   17472
   17467   17470   17471   17468   17467   17470   17468   17467   17469
   17469   17467   17470   17470   17473   17476   17470   17473   17475
   17470   17473   17474   17471   17470   17473   17471   17470   17472
   17472   17470   17473   17473   17476   17479   17473   17476   17478
   17473   17476   17477   17474   17473   17476   17474   17473   17475
   17475   17473   17476   17476   17479   17482   17476   17479   17481
   17476   17479   17480   17477   17476   17479   17477   17476   17478
   17478   17476   17479   17479   17482   17485   17479   17482   17484
   17479   17482   17483   17480   17479   17482   17480   17479   17481
   17481   17479   17482   17482   17485   17488   17482   17485   17487
   17482   17485   17486   17483   17482   17485   17483   17482   17484
   17484   17482   17485   17485   17488   17491   17485   17488   17490
   17485   17488   17489   17486   17485   17488   17486   17485   17487
   17487   17485   17488   17488   17491   17494   17488   17491   17493
   17488   17491   17492   17489   17488   17491   17489   17488   17490
   17490   17488   17491   17491   17494   17497   17491   17494   17496
   17491   17494   17495   17492   17491   17494   17492   17491   17493
   17493   17491   17494   17495   17494   17497   17495   17494   17496
   17496   17494   17497   17498   17511   17514   17498   17511   17513
   17498   17511   17512   17498   17507   17510   17498   17507   17509
   17498   17507   17508   17498   17503   17506   17498   17503   17505
   17498   17503   17504   17498   17499   17502   17498   17499   17501
   17498   17499   17500   17499   17498   17511   17499   17498   17507
   17499   17498   17503   17500   17499   17502   17500   17499   17501
   17501   17499   17502   17503   17498   17511   17503   17498   17507
   17504   17503   17506   17504   17503   17505   17505   17503   17506
   17507   17498   17511   17508   17507   17510   17508   17507   17509
   17509   17507   17510   17511   17514   17521   17511   17514   17516
   17511   17514   17515   17512   17511   17514   17512   17511   17513
   17513   17511   17514   17514   17521   17517   17515   17514   17521
   17515   17514   17516   17516   17514   17521   17517   17520   17522
   17518   17517   17519   17518   17517   17520   17518   17517   17521
   17519   17517   17520   17519   17517   17521   17520   17517   17521
   17520   17522   17523   17520   17522   17524   17520   17522   17525
   17522   17525   17527   17522   17525   17533   17522   17525   17526
   17523   17522   17525   17523   17522   17524   17524   17522   17525
   17525   17533   17536   17525   17533   17535   17525   17533   17534
   17525   17527   17528   17526   17525   17527   17526   17525   17533
   17527   17528   17529   17527   17528   17530   17527   17525   17533
   17528   17530   17542   17528   17530   17532   17528   17530   17531
   17529   17528   17530   17530   17542   17545   17530   17542   17544
   17530   17542   17543   17531   17530   17542   17531   17530   17532
   17532   17530   17542   17533   17536   17537   17534   17533   17536
   17534   17533   17535   17535   17533   17536   17536   17537   17538
   17536   17537   17539   17537   17539   17579   17537   17539   17541
   17537   17539   17540   17538   17537   17539   17539   17579   17582
   17539   17579   17581   17539   17579   17580   17540   17539   17579
   17540   17539   17541   17541   17539   17579   17542   17545   17548
   17542   17545   17547   17542   17545   17546   17543   17542   17545
   17543   17542   17544   17544   17542   17545   17545   17548   17551
   17545   17548   17550   17545   17548   17549   17546   17545   17548
   17546   17545   17547   17547   17545   17548   17548   17551   17554
   17548   17551   17553   17548   17551   17552   17549   17548   17551
   17549   17548   17550   17550   17548   17551   17551   17554   17557
   17551   17554   17556   17551   17554   17555   17552   17551   17554
   17552   17551   17553   17553   17551   17554   17554   17557   17560
   17554   17557   17559   17554   17557   17558   17555   17554   17557
   17555   17554   17556   17556   17554   17557   17557   17560   17563
   17557   17560   17562   17557   17560   17561   17558   17557   17560
   17558   17557   17559   17559   17557   17560   17560   17563   17566
   17560   17563   17565   17560   17563   17564   17561   17560   17563
   17561   17560   17562   17562   17560   17563   17563   17566   17569
   17563   17566   17568   17563   17566   17567   17564   17563   17566
   17564   17563   17565   17565   17563   17566   17566   17569   17572
   17566   17569   17571   17566   17569   17570   17567   17566   17569
   17567   17566   17568   17568   17566   17569   17569   17572   17575
   17569   17572   17574   17569   17572   17573   17570   17569   17572
   17570   17569   17571   17571   17569   17572   17572   17575   17578
   17572   17575   17577   17572   17575   17576   17573   17572   17575
   17573   17572   17574   17574   17572   17575   17576   17575   17578
   17576   17575   17577   17577   17575   17578   17579   17582   17585
   17579   17582   17584   17579   17582   17583   17580   17579   17582
   17580   17579   17581   17581   17579   17582   17582   17585   17588
   17582   17585   17587   17582   17585   17586   17583   17582   17585
   17583   17582   17584   17584   17582   17585   17585   17588   17591
   17585   17588   17590   17585   17588   17589   17586   17585   17588
   17586   17585   17587   17587   17585   17588   17588   17591   17594
   17588   17591   17593   17588   17591   17592   17589   17588   17591
   17589   17588   17590   17590   17588   17591   17591   17594   17597
   17591   17594   17596   17591   17594   17595   17592   17591   17594
   17592   17591   17593   17593   17591   17594   17594   17597   17600
   17594   17597   17599   17594   17597   17598   17595   17594   17597
   17595   17594   17596   17596   17594   17597   17597   17600   17603
   17597   17600   17602   17597   17600   17601   17598   17597   17600
   17598   17597   17599   17599   17597   17600   17600   17603   17606
   17600   17603   17605   17600   17603   17604   17601   17600   17603
   17601   17600   17602   17602   17600   17603   17603   17606   17609
   17603   17606   17608   17603   17606   17607   17604   17603   17606
   17604   17603   17605   17605   17603   17606   17606   17609   17612
   17606   17609   17611   17606   17609   17610   17607   17606   17609
   17607   17606   17608   17608   17606   17609   17609   17612   17615
   17609   17612   17614   17609   17612   17613   17610   17609   17612
   17610   17609   17611   17611   17609   17612   17613   17612   17615
   17613   17612   17614   17614   17612   17615   17616   17629   17632
   17616   17629   17631   17616   17629   17630   17616   17625   17628
   17616   17625   17627   17616   17625   17626   17616   17621   17624
   17616   17621   17623   17616   17621   17622   17616   17617   17620
   17616   17617   17619   17616   17617   17618   17617   17616   17629
   17617   17616   17625   17617   17616   17621   17618   17617   17620
   17618   17617   17619   17619   17617   17620   17621   17616   17629
   17621   17616   17625   17622   17621   17624   17622   17621   17623
   17623   17621   17624   17625   17616   17629   17626   17625   17628
   17626   17625   17627   17627   17625   17628   17629   17632   17639
   17629   17632   17634   17629   17632   17633   17630   17629   17632
   17630   17629   17631   17631   17629   17632   17632   17639   17635
   17633   17632   17639   17633   17632   17634   17634   17632   17639
   17635   17638   17640   17636   17635   17637   17636   17635   17638
   17636   17635   17639   17637   17635   17638   17637   17635   17639
   17638   17635   17639   17638   17640   17641   17638   17640   17642
   17638   17640   17643   17640   17643   17645   17640   17643   17651
   17640   17643   17644   17641   17640   17643   17641   17640   17642
   17642   17640   17643   17643   17651   17654   17643   17651   17653
   17643   17651   17652   17643   17645   17646   17644   17643   17645
   17644   17643   17651   17645   17646   17647   17645   17646   17648
   17645   17643   17651   17646   17648   17660   17646   17648   17650
   17646   17648   17649   17647   17646   17648   17648   17660   17663
   17648   17660   17662   17648   17660   17661   17649   17648   17660
   17649   17648   17650   17650   17648   17660   17651   17654   17655
   17652   17651   17654   17652   17651   17653   17653   17651   17654
   17654   17655   17656   17654   17655   17657   17655   17657   17697
   17655   17657   17659   17655   17657   17658   17656   17655   17657
   17657   17697   17700   17657   17697   17699   17657   17697   17698
   17658   17657   17697   17658   17657   17659   17659   17657   17697
   17660   17663   17666   17660   17663   17665   17660   17663   17664
   17661   17660   17663   17661   17660   17662   17662   17660   17663
   17663   17666   17669   17663   17666   17668   17663   17666   17667
   17664   17663   17666   17664   17663   17665   17665   17663   17666
   17666   17669   17672   17666   17669   17671   17666   17669   17670
   17667   17666   17669   17667   17666   17668   17668   17666   17669
   17669   17672   17675   17669   17672   17674   17669   17672   17673
   17670   17669   17672   17670   17669   17671   17671   17669   17672
   17672   17675   17678   17672   17675   17677   17672   17675   17676
   17673   17672   17675   17673   17672   17674   17674   17672   17675
   17675   17678   17681   17675   17678   17680   17675   17678   17679
   17676   17675   17678   17676   17675   17677   17677   17675   17678
   17678   17681   17684   17678   17681   17683   17678   17681   17682
   17679   17678   17681   17679   17678   17680   17680   17678   17681
   17681   17684   17687   17681   17684   17686   17681   17684   17685
   17682   17681   17684   17682   17681   17683   17683   17681   17684
   17684   17687   17690   17684   17687   17689   17684   17687   17688
   17685   17684   17687   17685   17684   17686   17686   17684   17687
   17687   17690   17693   17687   17690   17692   17687   17690   17691
   17688   17687   17690   17688   17687   17689   17689   17687   17690
   17690   17693   17696   17690   17693   17695   17690   17693   17694
   17691   17690   17693   17691   17690   17692   17692   17690   17693
   17694   17693   17696   17694   17693   17695   17695   17693   17696
   17697   17700   17703   17697   17700   17702   17697   17700   17701
   17698   17697   17700   17698   17697   17699   17699   17697   17700
   17700   17703   17706   17700   17703   17705   17700   17703   17704
   17701   17700   17703   17701   17700   17702   17702   17700   17703
   17703   17706   17709   17703   17706   17708   17703   17706   17707
   17704   17703   17706   17704   17703   17705   17705   17703   17706
   17706   17709   17712   17706   17709   17711   17706   17709   17710
   17707   17706   17709   17707   17706   17708   17708   17706   17709
   17709   17712   17715   17709   17712   17714   17709   17712   17713
   17710   17709   17712   17710   17709   17711   17711   17709   17712
   17712   17715   17718   17712   17715   17717   17712   17715   17716
   17713   17712   17715   17713   17712   17714   17714   17712   17715
   17715   17718   17721   17715   17718   17720   17715   17718   17719
   17716   17715   17718   17716   17715   17717   17717   17715   17718
   17718   17721   17724   17718   17721   17723   17718   17721   17722
   17719   17718   17721   17719   17718   17720   17720   17718   17721
   17721   17724   17727   17721   17724   17726   17721   17724   17725
   17722   17721   17724   17722   17721   17723   17723   17721   17724
   17724   17727   17730   17724   17727   17729   17724   17727   17728
   17725   17724   17727   17725   17724   17726   17726   17724   17727
   17727   17730   17733   17727   17730   17732   17727   17730   17731
   17728   17727   17730   17728   17727   17729   17729   17727   17730
   17731   17730   17733   17731   17730   17732   17732   17730   17733
   17734   17747   17750   17734   17747   17749   17734   17747   17748
   17734   17743   17746   17734   17743   17745   17734   17743   17744
   17734   17739   17742   17734   17739   17741   17734   17739   17740
   17734   17735   17738   17734   17735   17737   17734   17735   17736
   17735   17734   17747   17735   17734   17743   17735   17734   17739
   17736   17735   17738   17736   17735   17737   17737   17735   17738
   17739   17734   17747   17739   17734   17743   17740   17739   17742
   17740   17739   17741   17741   17739   17742   17743   17734   17747
   17744   17743   17746   17744   17743   17745   17745   17743   17746
   17747   17750   17757   17747   17750   17752   17747   17750   17751
   17748   17747   17750   17748   17747   17749   17749   17747   17750
   17750   17757   17753   17751   17750   17757   17751   17750   17752
   17752   17750   17757   17753   17756   17758   17754   17753   17755
   17754   17753   17756   17754   17753   17757   17755   17753   17756
   17755   17753   17757   17756   17753   17757   17756   17758   17759
   17756   17758   17760   17756   17758   17761   17758   17761   17763
   17758   17761   17769   17758   17761   17762   17759   17758   17761
   17759   17758   17760   17760   17758   17761   17761   17769   17772
   17761   17769   17771   17761   17769   17770   17761   17763   17764
   17762   17761   17763   17762   17761   17769   17763   17764   17765
   17763   17764   17766   17763   17761   17769   17764   17766   17778
   17764   17766   17768   17764   17766   17767   17765   17764   17766
   17766   17778   17781   17766   17778   17780   17766   17778   17779
   17767   17766   17778   17767   17766   17768   17768   17766   17778
   17769   17772   17773   17770   17769   17772   17770   17769   17771
   17771   17769   17772   17772   17773   17774   17772   17773   17775
   17773   17775   17815   17773   17775   17777   17773   17775   17776
   17774   17773   17775   17775   17815   17818   17775   17815   17817
   17775   17815   17816   17776   17775   17815   17776   17775   17777
   17777   17775   17815   17778   17781   17784   17778   17781   17783
   17778   17781   17782   17779   17778   17781   17779   17778   17780
   17780   17778   17781   17781   17784   17787   17781   17784   17786
   17781   17784   17785   17782   17781   17784   17782   17781   17783
   17783   17781   17784   17784   17787   17790   17784   17787   17789
   17784   17787   17788   17785   17784   17787   17785   17784   17786
   17786   17784   17787   17787   17790   17793   17787   17790   17792
   17787   17790   17791   17788   17787   17790   17788   17787   17789
   17789   17787   17790   17790   17793   17796   17790   17793   17795
   17790   17793   17794   17791   17790   17793   17791   17790   17792
   17792   17790   17793   17793   17796   17799   17793   17796   17798
   17793   17796   17797   17794   17793   17796   17794   17793   17795
   17795   17793   17796   17796   17799   17802   17796   17799   17801
   17796   17799   17800   17797   17796   17799   17797   17796   17798
   17798   17796   17799   17799   17802   17805   17799   17802   17804
   17799   17802   17803   17800   17799   17802   17800   17799   17801
   17801   17799   17802   17802   17805   17808   17802   17805   17807
   17802   17805   17806   17803   17802   17805   17803   17802   17804
   17804   17802   17805   17805   17808   17811   17805   17808   17810
   17805   17808   17809   17806   17805   17808   17806   17805   17807
   17807   17805   17808   17808   17811   17814   17808   17811   17813
   17808   17811   17812   17809   17808   17811   17809   17808   17810
   17810   17808   17811   17812   17811   17814   17812   17811   17813
   17813   17811   17814   17815   17818   17821   17815   17818   17820
   17815   17818   17819   17816   17815   17818   17816   17815   17817
   17817   17815   17818   17818   17821   17824   17818   17821   17823
   17818   17821   17822   17819   17818   17821   17819   17818   17820
   17820   17818   17821   17821   17824   17827   17821   17824   17826
   17821   17824   17825   17822   17821   17824   17822   17821   17823
   17823   17821   17824   17824   17827   17830   17824   17827   17829
   17824   17827   17828   17825   17824   17827   17825   17824   17826
   17826   17824   17827   17827   17830   17833   17827   17830   17832
   17827   17830   17831   17828   17827   17830   17828   17827   17829
   17829   17827   17830   17830   17833   17836   17830   17833   17835
   17830   17833   17834   17831   17830   17833   17831   17830   17832
   17832   17830   17833   17833   17836   17839   17833   17836   17838
   17833   17836   17837   17834   17833   17836   17834   17833   17835
   17835   17833   17836   17836   17839   17842   17836   17839   17841
   17836   17839   17840   17837   17836   17839   17837   17836   17838
   17838   17836   17839   17839   17842   17845   17839   17842   17844
   17839   17842   17843   17840   17839   17842   17840   17839   17841
   17841   17839   17842   17842   17845   17848   17842   17845   17847
   17842   17845   17846   17843   17842   17845   17843   17842   17844
   17844   17842   17845   17845   17848   17851   17845   17848   17850
   17845   17848   17849   17846   17845   17848   17846   17845   17847
   17847   17845   17848   17849   17848   17851   17849   17848   17850
   17850   17848   17851   17852   17865   17868   17852   17865   17867
   17852   17865   17866   17852   17861   17864   17852   17861   17863
   17852   17861   17862   17852   17857   17860   17852   17857   17859
   17852   17857   17858   17852   17853   17856   17852   17853   17855
   17852   17853   17854   17853   17852   17865   17853   17852   17861
   17853   17852   17857   17854   17853   17856   17854   17853   17855
   17855   17853   17856   17857   17852   17865   17857   17852   17861
   17858   17857   17860   17858   17857   17859   17859   17857   17860
   17861   17852   17865   17862   17861   17864   17862   17861   17863
   17863   17861   17864   17865   17868   17875   17865   17868   17870
   17865   17868   17869   17866   17865   17868   17866   17865   17867
   17867   17865   17868   17868   17875   17871   17869   17868   17875
   17869   17868   17870   17870   17868   17875   17871   17874   17876
   17872   17871   17873   17872   17871   17874   17872   17871   17875
   17873   17871   17874   17873   17871   17875   17874   17871   17875
   17874   17876   17877   17874   17876   17878   17874   17876   17879
   17876   17879   17881   17876   17879   17887   17876   17879   17880
   17877   17876   17879   17877   17876   17878   17878   17876   17879
   17879   17887   17890   17879   17887   17889   17879   17887   17888
   17879   17881   17882   17880   17879   17881   17880   17879   17887
   17881   17882   17883   17881   17882   17884   17881   17879   17887
   17882   17884   17896   17882   17884   17886   17882   17884   17885
   17883   17882   17884   17884   17896   17899   17884   17896   17898
   17884   17896   17897   17885   17884   17896   17885   17884   17886
   17886   17884   17896   17887   17890   17891   17888   17887   17890
   17888   17887   17889   17889   17887   17890   17890   17891   17892
   17890   17891   17893   17891   17893   17933   17891   17893   17895
   17891   17893   17894   17892   17891   17893   17893   17933   17936
   17893   17933   17935   17893   17933   17934   17894   17893   17933
   17894   17893   17895   17895   17893   17933   17896   17899   17902
   17896   17899   17901   17896   17899   17900   17897   17896   17899
   17897   17896   17898   17898   17896   17899   17899   17902   17905
   17899   17902   17904   17899   17902   17903   17900   17899   17902
   17900   17899   17901   17901   17899   17902   17902   17905   17908
   17902   17905   17907   17902   17905   17906   17903   17902   17905
   17903   17902   17904   17904   17902   17905   17905   17908   17911
   17905   17908   17910   17905   17908   17909   17906   17905   17908
   17906   17905   17907   17907   17905   17908   17908   17911   17914
   17908   17911   17913   17908   17911   17912   17909   17908   17911
   17909   17908   17910   17910   17908   17911   17911   17914   17917
   17911   17914   17916   17911   17914   17915   17912   17911   17914
   17912   17911   17913   17913   17911   17914   17914   17917   17920
   17914   17917   17919   17914   17917   17918   17915   17914   17917
   17915   17914   17916   17916   17914   17917   17917   17920   17923
   17917   17920   17922   17917   17920   17921   17918   17917   17920
   17918   17917   17919   17919   17917   17920   17920   17923   17926
   17920   17923   17925   17920   17923   17924   17921   17920   17923
   17921   17920   17922   17922   17920   17923   17923   17926   17929
   17923   17926   17928   17923   17926   17927   17924   17923   17926
   17924   17923   17925   17925   17923   17926   17926   17929   17932
   17926   17929   17931   17926   17929   17930   17927   17926   17929
   17927   17926   17928   17928   17926   17929   17930   17929   17932
   17930   17929   17931   17931   17929   17932   17933   17936   17939
   17933   17936   17938   17933   17936   17937   17934   17933   17936
   17934   17933   17935   17935   17933   17936   17936   17939   17942
   17936   17939   17941   17936   17939   17940   17937   17936   17939
   17937   17936   17938   17938   17936   17939   17939   17942   17945
   17939   17942   17944   17939   17942   17943   17940   17939   17942
   17940   17939   17941   17941   17939   17942   17942   17945   17948
   17942   17945   17947   17942   17945   17946   17943   17942   17945
   17943   17942   17944   17944   17942   17945   17945   17948   17951
   17945   17948   17950   17945   17948   17949   17946   17945   17948
   17946   17945   17947   17947   17945   17948   17948   17951   17954
   17948   17951   17953   17948   17951   17952   17949   17948   17951
   17949   17948   17950   17950   17948   17951   17951   17954   17957
   17951   17954   17956   17951   17954   17955   17952   17951   17954
   17952   17951   17953   17953   17951   17954   17954   17957   17960
   17954   17957   17959   17954   17957   17958   17955   17954   17957
   17955   17954   17956   17956   17954   17957   17957   17960   17963
   17957   17960   17962   17957   17960   17961   17958   17957   17960
   17958   17957   17959   17959   17957   17960   17960   17963   17966
   17960   17963   17965   17960   17963   17964   17961   17960   17963
   17961   17960   17962   17962   17960   17963   17963   17966   17969
   17963   17966   17968   17963   17966   17967   17964   17963   17966
   17964   17963   17965   17965   17963   17966   17967   17966   17969
   17967   17966   17968   17968   17966   17969   17970   17983   17986
   17970   17983   17985   17970   17983   17984   17970   17979   17982
   17970   17979   17981   17970   17979   17980   17970   17975   17978
   17970   17975   17977   17970   17975   17976   17970   17971   17974
   17970   17971   17973   17970   17971   17972   17971   17970   17983
   17971   17970   17979   17971   17970   17975   17972   17971   17974
   17972   17971   17973   17973   17971   17974   17975   17970   17983
   17975   17970   17979   17976   17975   17978   17976   17975   17977
   17977   17975   17978   17979   17970   17983   17980   17979   17982
   17980   17979   17981   17981   17979   17982   17983   17986   17993
   17983   17986   17988   17983   17986   17987   17984   17983   17986
   17984   17983   17985   17985   17983   17986   17986   17993   17989
   17987   17986   17993   17987   17986   17988   17988   17986   17993
   17989   17992   17994   17990   17989   17991   17990   17989   17992
   17990   17989   17993   17991   17989   17992   17991   17989   17993
   17992   17989   17993   17992   17994   17995   17992   17994   17996
   17992   17994   17997   17994   17997   17999   17994   17997   18005
   17994   17997   17998   17995   17994   17997   17995   17994   17996
   17996   17994   17997   17997   18005   18008   17997   18005   18007
   17997   18005   18006   17997   17999   18000   17998   17997   17999
   17998   17997   18005   17999   18000   18001   17999   18000   18002
   17999   17997   18005   18000   18002   18014   18000   18002   18004
   18000   18002   18003   18001   18000   18002   18002   18014   18017
   18002   18014   18016   18002   18014   18015   18003   18002   18014
   18003   18002   18004   18004   18002   18014   18005   18008   18009
   18006   18005   18008   18006   18005   18007   18007   18005   18008
   18008   18009   18010   18008   18009   18011   18009   18011   18051
   18009   18011   18013   18009   18011   18012   18010   18009   18011
   18011   18051   18054   18011   18051   18053   18011   18051   18052
   18012   18011   18051   18012   18011   18013   18013   18011   18051
   18014   18017   18020   18014   18017   18019   18014   18017   18018
   18015   18014   18017   18015   18014   18016   18016   18014   18017
   18017   18020   18023   18017   18020   18022   18017   18020   18021
   18018   18017   18020   18018   18017   18019   18019   18017   18020
   18020   18023   18026   18020   18023   18025   18020   18023   18024
   18021   18020   18023   18021   18020   18022   18022   18020   18023
   18023   18026   18029   18023   18026   18028   18023   18026   18027
   18024   18023   18026   18024   18023   18025   18025   18023   18026
   18026   18029   18032   18026   18029   18031   18026   18029   18030
   18027   18026   18029   18027   18026   18028   18028   18026   18029
   18029   18032   18035   18029   18032   18034   18029   18032   18033
   18030   18029   18032   18030   18029   18031   18031   18029   18032
   18032   18035   18038   18032   18035   18037   18032   18035   18036
   18033   18032   18035   18033   18032   18034   18034   18032   18035
   18035   18038   18041   18035   18038   18040   18035   18038   18039
   18036   18035   18038   18036   18035   18037   18037   18035   18038
   18038   18041   18044   18038   18041   18043   18038   18041   18042
   18039   18038   18041   18039   18038   18040   18040   18038   18041
   18041   18044   18047   18041   18044   18046   18041   18044   18045
   18042   18041   18044   18042   18041   18043   18043   18041   18044
   18044   18047   18050   18044   18047   18049   18044   18047   18048
   18045   18044   18047   18045   18044   18046   18046   18044   18047
   18048   18047   18050   18048   18047   18049   18049   18047   18050
   18051   18054   18057   18051   18054   18056   18051   18054   18055
   18052   18051   18054   18052   18051   18053   18053   18051   18054
   18054   18057   18060   18054   18057   18059   18054   18057   18058
   18055   18054   18057   18055   18054   18056   18056   18054   18057
   18057   18060   18063   18057   18060   18062   18057   18060   18061
   18058   18057   18060   18058   18057   18059   18059   18057   18060
   18060   18063   18066   18060   18063   18065   18060   18063   18064
   18061   18060   18063   18061   18060   18062   18062   18060   18063
   18063   18066   18069   18063   18066   18068   18063   18066   18067
   18064   18063   18066   18064   18063   18065   18065   18063   18066
   18066   18069   18072   18066   18069   18071   18066   18069   18070
   18067   18066   18069   18067   18066   18068   18068   18066   18069
   18069   18072   18075   18069   18072   18074   18069   18072   18073
   18070   18069   18072   18070   18069   18071   18071   18069   18072
   18072   18075   18078   18072   18075   18077   18072   18075   18076
   18073   18072   18075   18073   18072   18074   18074   18072   18075
   18075   18078   18081   18075   18078   18080   18075   18078   18079
   18076   18075   18078   18076   18075   18077   18077   18075   18078
   18078   18081   18084   18078   18081   18083   18078   18081   18082
   18079   18078   18081   18079   18078   18080   18080   18078   18081
   18081   18084   18087   18081   18084   18086   18081   18084   18085
   18082   18081   18084   18082   18081   18083   18083   18081   18084
   18085   18084   18087   18085   18084   18086   18086   18084   18087
   18088   18101   18104   18088   18101   18103   18088   18101   18102
   18088   18097   18100   18088   18097   18099   18088   18097   18098
   18088   18093   18096   18088   18093   18095   18088   18093   18094
   18088   18089   18092   18088   18089   18091   18088   18089   18090
   18089   18088   18101   18089   18088   18097   18089   18088   18093
   18090   18089   18092   18090   18089   18091   18091   18089   18092
   18093   18088   18101   18093   18088   18097   18094   18093   18096
   18094   18093   18095   18095   18093   18096   18097   18088   18101
   18098   18097   18100   18098   18097   18099   18099   18097   18100
   18101   18104   18111   18101   18104   18106   18101   18104   18105
   18102   18101   18104   18102   18101   18103   18103   18101   18104
   18104   18111   18107   18105   18104   18111   18105   18104   18106
   18106   18104   18111   18107   18110   18112   18108   18107   18109
   18108   18107   18110   18108   18107   18111   18109   18107   18110
   18109   18107   18111   18110   18107   18111   18110   18112   18113
   18110   18112   18114   18110   18112   18115   18112   18115   18117
   18112   18115   18123   18112   18115   18116   18113   18112   18115
   18113   18112   18114   18114   18112   18115   18115   18123   18126
   18115   18123   18125   18115   18123   18124   18115   18117   18118
   18116   18115   18117   18116   18115   18123   18117   18118   18119
   18117   18118   18120   18117   18115   18123   18118   18120   18132
   18118   18120   18122   18118   18120   18121   18119   18118   18120
   18120   18132   18135   18120   18132   18134   18120   18132   18133
   18121   18120   18132   18121   18120   18122   18122   18120   18132
   18123   18126   18127   18124   18123   18126   18124   18123   18125
   18125   18123   18126   18126   18127   18128   18126   18127   18129
   18127   18129   18169   18127   18129   18131   18127   18129   18130
   18128   18127   18129   18129   18169   18172   18129   18169   18171
   18129   18169   18170   18130   18129   18169   18130   18129   18131
   18131   18129   18169   18132   18135   18138   18132   18135   18137
   18132   18135   18136   18133   18132   18135   18133   18132   18134
   18134   18132   18135   18135   18138   18141   18135   18138   18140
   18135   18138   18139   18136   18135   18138   18136   18135   18137
   18137   18135   18138   18138   18141   18144   18138   18141   18143
   18138   18141   18142   18139   18138   18141   18139   18138   18140
   18140   18138   18141   18141   18144   18147   18141   18144   18146
   18141   18144   18145   18142   18141   18144   18142   18141   18143
   18143   18141   18144   18144   18147   18150   18144   18147   18149
   18144   18147   18148   18145   18144   18147   18145   18144   18146
   18146   18144   18147   18147   18150   18153   18147   18150   18152
   18147   18150   18151   18148   18147   18150   18148   18147   18149
   18149   18147   18150   18150   18153   18156   18150   18153   18155
   18150   18153   18154   18151   18150   18153   18151   18150   18152
   18152   18150   18153   18153   18156   18159   18153   18156   18158
   18153   18156   18157   18154   18153   18156   18154   18153   18155
   18155   18153   18156   18156   18159   18162   18156   18159   18161
   18156   18159   18160   18157   18156   18159   18157   18156   18158
   18158   18156   18159   18159   18162   18165   18159   18162   18164
   18159   18162   18163   18160   18159   18162   18160   18159   18161
   18161   18159   18162   18162   18165   18168   18162   18165   18167
   18162   18165   18166   18163   18162   18165   18163   18162   18164
   18164   18162   18165   18166   18165   18168   18166   18165   18167
   18167   18165   18168   18169   18172   18175   18169   18172   18174
   18169   18172   18173   18170   18169   18172   18170   18169   18171
   18171   18169   18172   18172   18175   18178   18172   18175   18177
   18172   18175   18176   18173   18172   18175   18173   18172   18174
   18174   18172   18175   18175   18178   18181   18175   18178   18180
   18175   18178   18179   18176   18175   18178   18176   18175   18177
   18177   18175   18178   18178   18181   18184   18178   18181   18183
   18178   18181   18182   18179   18178   18181   18179   18178   18180
   18180   18178   18181   18181   18184   18187   18181   18184   18186
   18181   18184   18185   18182   18181   18184   18182   18181   18183
   18183   18181   18184   18184   18187   18190   18184   18187   18189
   18184   18187   18188   18185   18184   18187   18185   18184   18186
   18186   18184   18187   18187   18190   18193   18187   18190   18192
   18187   18190   18191   18188   18187   18190   18188   18187   18189
   18189   18187   18190   18190   18193   18196   18190   18193   18195
   18190   18193   18194   18191   18190   18193   18191   18190   18192
   18192   18190   18193   18193   18196   18199   18193   18196   18198
   18193   18196   18197   18194   18193   18196   18194   18193   18195
   18195   18193   18196   18196   18199   18202   18196   18199   18201
   18196   18199   18200   18197   18196   18199   18197   18196   18198
   18198   18196   18199   18199   18202   18205   18199   18202   18204
   18199   18202   18203   18200   18199   18202   18200   18199   18201
   18201   18199   18202   18203   18202   18205   18203   18202   18204
   18204   18202   18205   18206   18219   18222   18206   18219   18221
   18206   18219   18220   18206   18215   18218   18206   18215   18217
   18206   18215   18216   18206   18211   18214   18206   18211   18213
   18206   18211   18212   18206   18207   18210   18206   18207   18209
   18206   18207   18208   18207   18206   18219   18207   18206   18215
   18207   18206   18211   18208   18207   18210   18208   18207   18209
   18209   18207   18210   18211   18206   18219   18211   18206   18215
   18212   18211   18214   18212   18211   18213   18213   18211   18214
   18215   18206   18219   18216   18215   18218   18216   18215   18217
   18217   18215   18218   18219   18222   18229   18219   18222   18224
   18219   18222   18223   18220   18219   18222   18220   18219   18221
   18221   18219   18222   18222   18229   18225   18223   18222   18229
   18223   18222   18224   18224   18222   18229   18225   18228   18230
   18226   18225   18227   18226   18225   18228   18226   18225   18229
   18227   18225   18228   18227   18225   18229   18228   18225   18229
   18228   18230   18231   18228   18230   18232   18228   18230   18233
   18230   18233   18235   18230   18233   18241   18230   18233   18234
   18231   18230   18233   18231   18230   18232   18232   18230   18233
   18233   18241   18244   18233   18241   18243   18233   18241   18242
   18233   18235   18236   18234   18233   18235   18234   18233   18241
   18235   18236   18237   18235   18236   18238   18235   18233   18241
   18236   18238   18250   18236   18238   18240   18236   18238   18239
   18237   18236   18238   18238   18250   18253   18238   18250   18252
   18238   18250   18251   18239   18238   18250   18239   18238   18240
   18240   18238   18250   18241   18244   18245   18242   18241   18244
   18242   18241   18243   18243   18241   18244   18244   18245   18246
   18244   18245   18247   18245   18247   18287   18245   18247   18249
   18245   18247   18248   18246   18245   18247   18247   18287   18290
   18247   18287   18289   18247   18287   18288   18248   18247   18287
   18248   18247   18249   18249   18247   18287   18250   18253   18256
   18250   18253   18255   18250   18253   18254   18251   18250   18253
   18251   18250   18252   18252   18250   18253   18253   18256   18259
   18253   18256   18258   18253   18256   18257   18254   18253   18256
   18254   18253   18255   18255   18253   18256   18256   18259   18262
   18256   18259   18261   18256   18259   18260   18257   18256   18259
   18257   18256   18258   18258   18256   18259   18259   18262   18265
   18259   18262   18264   18259   18262   18263   18260   18259   18262
   18260   18259   18261   18261   18259   18262   18262   18265   18268
   18262   18265   18267   18262   18265   18266   18263   18262   18265
   18263   18262   18264   18264   18262   18265   18265   18268   18271
   18265   18268   18270   18265   18268   18269   18266   18265   18268
   18266   18265   18267   18267   18265   18268   18268   18271   18274
   18268   18271   18273   18268   18271   18272   18269   18268   18271
   18269   18268   18270   18270   18268   18271   18271   18274   18277
   18271   18274   18276   18271   18274   18275   18272   18271   18274
   18272   18271   18273   18273   18271   18274   18274   18277   18280
   18274   18277   18279   18274   18277   18278   18275   18274   18277
   18275   18274   18276   18276   18274   18277   18277   18280   18283
   18277   18280   18282   18277   18280   18281   18278   18277   18280
   18278   18277   18279   18279   18277   18280   18280   18283   18286
   18280   18283   18285   18280   18283   18284   18281   18280   18283
   18281   18280   18282   18282   18280   18283   18284   18283   18286
   18284   18283   18285   18285   18283   18286   18287   18290   18293
   18287   18290   18292   18287   18290   18291   18288   18287   18290
   18288   18287   18289   18289   18287   18290   18290   18293   18296
   18290   18293   18295   18290   18293   18294   18291   18290   18293
   18291   18290   18292   18292   18290   18293   18293   18296   18299
   18293   18296   18298   18293   18296   18297   18294   18293   18296
   18294   18293   18295   18295   18293   18296   18296   18299   18302
   18296   18299   18301   18296   18299   18300   18297   18296   18299
   18297   18296   18298   18298   18296   18299   18299   18302   18305
   18299   18302   18304   18299   18302   18303   18300   18299   18302
   18300   18299   18301   18301   18299   18302   18302   18305   18308
   18302   18305   18307   18302   18305   18306   18303   18302   18305
   18303   18302   18304   18304   18302   18305   18305   18308   18311
   18305   18308   18310   18305   18308   18309   18306   18305   18308
   18306   18305   18307   18307   18305   18308   18308   18311   18314
   18308   18311   18313   18308   18311   18312   18309   18308   18311
   18309   18308   18310   18310   18308   18311   18311   18314   18317
   18311   18314   18316   18311   18314   18315   18312   18311   18314
   18312   18311   18313   18313   18311   18314   18314   18317   18320
   18314   18317   18319   18314   18317   18318   18315   18314   18317
   18315   18314   18316   18316   18314   18317   18317   18320   18323
   18317   18320   18322   18317   18320   18321   18318   18317   18320
   18318   18317   18319   18319   18317   18320   18321   18320   18323
   18321   18320   18322   18322   18320   18323   18324   18337   18340
   18324   18337   18339   18324   18337   18338   18324   18333   18336
   18324   18333   18335   18324   18333   18334   18324   18329   18332
   18324   18329   18331   18324   18329   18330   18324   18325   18328
   18324   18325   18327   18324   18325   18326   18325   18324   18337
   18325   18324   18333   18325   18324   18329   18326   18325   18328
   18326   18325   18327   18327   18325   18328   18329   18324   18337
   18329   18324   18333   18330   18329   18332   18330   18329   18331
   18331   18329   18332   18333   18324   18337   18334   18333   18336
   18334   18333   18335   18335   18333   18336   18337   18340   18347
   18337   18340   18342   18337   18340   18341   18338   18337   18340
   18338   18337   18339   18339   18337   18340   18340   18347   18343
   18341   18340   18347   18341   18340   18342   18342   18340   18347
   18343   18346   18348   18344   18343   18345   18344   18343   18346
   18344   18343   18347   18345   18343   18346   18345   18343   18347
   18346   18343   18347   18346   18348   18349   18346   18348   18350
   18346   18348   18351   18348   18351   18353   18348   18351   18359
   18348   18351   18352   18349   18348   18351   18349   18348   18350
   18350   18348   18351   18351   18359   18362   18351   18359   18361
   18351   18359   18360   18351   18353   18354   18352   18351   18353
   18352   18351   18359   18353   18354   18355   18353   18354   18356
   18353   18351   18359   18354   18356   18368   18354   18356   18358
   18354   18356   18357   18355   18354   18356   18356   18368   18371
   18356   18368   18370   18356   18368   18369   18357   18356   18368
   18357   18356   18358   18358   18356   18368   18359   18362   18363
   18360   18359   18362   18360   18359   18361   18361   18359   18362
   18362   18363   18364   18362   18363   18365   18363   18365   18405
   18363   18365   18367   18363   18365   18366   18364   18363   18365
   18365   18405   18408   18365   18405   18407   18365   18405   18406
   18366   18365   18405   18366   18365   18367   18367   18365   18405
   18368   18371   18374   18368   18371   18373   18368   18371   18372
   18369   18368   18371   18369   18368   18370   18370   18368   18371
   18371   18374   18377   18371   18374   18376   18371   18374   18375
   18372   18371   18374   18372   18371   18373   18373   18371   18374
   18374   18377   18380   18374   18377   18379   18374   18377   18378
   18375   18374   18377   18375   18374   18376   18376   18374   18377
   18377   18380   18383   18377   18380   18382   18377   18380   18381
   18378   18377   18380   18378   18377   18379   18379   18377   18380
   18380   18383   18386   18380   18383   18385   18380   18383   18384
   18381   18380   18383   18381   18380   18382   18382   18380   18383
   18383   18386   18389   18383   18386   18388   18383   18386   18387
   18384   18383   18386   18384   18383   18385   18385   18383   18386
   18386   18389   18392   18386   18389   18391   18386   18389   18390
   18387   18386   18389   18387   18386   18388   18388   18386   18389
   18389   18392   18395   18389   18392   18394   18389   18392   18393
   18390   18389   18392   18390   18389   18391   18391   18389   18392
   18392   18395   18398   18392   18395   18397   18392   18395   18396
   18393   18392   18395   18393   18392   18394   18394   18392   18395
   18395   18398   18401   18395   18398   18400   18395   18398   18399
   18396   18395   18398   18396   18395   18397   18397   18395   18398
   18398   18401   18404   18398   18401   18403   18398   18401   18402
   18399   18398   18401   18399   18398   18400   18400   18398   18401
   18402   18401   18404   18402   18401   18403   18403   18401   18404
   18405   18408   18411   18405   18408   18410   18405   18408   18409
   18406   18405   18408   18406   18405   18407   18407   18405   18408
   18408   18411   18414   18408   18411   18413   18408   18411   18412
   18409   18408   18411   18409   18408   18410   18410   18408   18411
   18411   18414   18417   18411   18414   18416   18411   18414   18415
   18412   18411   18414   18412   18411   18413   18413   18411   18414
   18414   18417   18420   18414   18417   18419   18414   18417   18418
   18415   18414   18417   18415   18414   18416   18416   18414   18417
   18417   18420   18423   18417   18420   18422   18417   18420   18421
   18418   18417   18420   18418   18417   18419   18419   18417   18420
   18420   18423   18426   18420   18423   18425   18420   18423   18424
   18421   18420   18423   18421   18420   18422   18422   18420   18423
   18423   18426   18429   18423   18426   18428   18423   18426   18427
   18424   18423   18426   18424   18423   18425   18425   18423   18426
   18426   18429   18432   18426   18429   18431   18426   18429   18430
   18427   18426   18429   18427   18426   18428   18428   18426   18429
   18429   18432   18435   18429   18432   18434   18429   18432   18433
   18430   18429   18432   18430   18429   18431   18431   18429   18432
   18432   18435   18438   18432   18435   18437   18432   18435   18436
   18433   18432   18435   18433   18432   18434   18434   18432   18435
   18435   18438   18441   18435   18438   18440   18435   18438   18439
   18436   18435   18438   18436   18435   18437   18437   18435   18438
   18439   18438   18441   18439   18438   18440   18440   18438   18441
   18442   18455   18458   18442   18455   18457   18442   18455   18456
   18442   18451   18454   18442   18451   18453   18442   18451   18452
   18442   18447   18450   18442   18447   18449   18442   18447   18448
   18442   18443   18446   18442   18443   18445   18442   18443   18444
   18443   18442   18455   18443   18442   18451   18443   18442   18447
   18444   18443   18446   18444   18443   18445   18445   18443   18446
   18447   18442   18455   18447   18442   18451   18448   18447   18450
   18448   18447   18449   18449   18447   18450   18451   18442   18455
   18452   18451   18454   18452   18451   18453   18453   18451   18454
   18455   18458   18465   18455   18458   18460   18455   18458   18459
   18456   18455   18458   18456   18455   18457   18457   18455   18458
   18458   18465   18461   18459   18458   18465   18459   18458   18460
   18460   18458   18465   18461   18464   18466   18462   18461   18463
   18462   18461   18464   18462   18461   18465   18463   18461   18464
   18463   18461   18465   18464   18461   18465   18464   18466   18467
   18464   18466   18468   18464   18466   18469   18466   18469   18471
   18466   18469   18477   18466   18469   18470   18467   18466   18469
   18467   18466   18468   18468   18466   18469   18469   18477   18480
   18469   18477   18479   18469   18477   18478   18469   18471   18472
   18470   18469   18471   18470   18469   18477   18471   18472   18473
   18471   18472   18474   18471   18469   18477   18472   18474   18486
   18472   18474   18476   18472   18474   18475   18473   18472   18474
   18474   18486   18489   18474   18486   18488   18474   18486   18487
   18475   18474   18486   18475   18474   18476   18476   18474   18486
   18477   18480   18481   18478   18477   18480   18478   18477   18479
   18479   18477   18480   18480   18481   18482   18480   18481   18483
   18481   18483   18523   18481   18483   18485   18481   18483   18484
   18482   18481   18483   18483   18523   18526   18483   18523   18525
   18483   18523   18524   18484   18483   18523   18484   18483   18485
   18485   18483   18523   18486   18489   18492   18486   18489   18491
   18486   18489   18490   18487   18486   18489   18487   18486   18488
   18488   18486   18489   18489   18492   18495   18489   18492   18494
   18489   18492   18493   18490   18489   18492   18490   18489   18491
   18491   18489   18492   18492   18495   18498   18492   18495   18497
   18492   18495   18496   18493   18492   18495   18493   18492   18494
   18494   18492   18495   18495   18498   18501   18495   18498   18500
   18495   18498   18499   18496   18495   18498   18496   18495   18497
   18497   18495   18498   18498   18501   18504   18498   18501   18503
   18498   18501   18502   18499   18498   18501   18499   18498   18500
   18500   18498   18501   18501   18504   18507   18501   18504   18506
   18501   18504   18505   18502   18501   18504   18502   18501   18503
   18503   18501   18504   18504   18507   18510   18504   18507   18509
   18504   18507   18508   18505   18504   18507   18505   18504   18506
   18506   18504   18507   18507   18510   18513   18507   18510   18512
   18507   18510   18511   18508   18507   18510   18508   18507   18509
   18509   18507   18510   18510   18513   18516   18510   18513   18515
   18510   18513   18514   18511   18510   18513   18511   18510   18512
   18512   18510   18513   18513   18516   18519   18513   18516   18518
   18513   18516   18517   18514   18513   18516   18514   18513   18515
   18515   18513   18516   18516   18519   18522   18516   18519   18521
   18516   18519   18520   18517   18516   18519   18517   18516   18518
   18518   18516   18519   18520   18519   18522   18520   18519   18521
   18521   18519   18522   18523   18526   18529   18523   18526   18528
   18523   18526   18527   18524   18523   18526   18524   18523   18525
   18525   18523   18526   18526   18529   18532   18526   18529   18531
   18526   18529   18530   18527   18526   18529   18527   18526   18528
   18528   18526   18529   18529   18532   18535   18529   18532   18534
   18529   18532   18533   18530   18529   18532   18530   18529   18531
   18531   18529   18532   18532   18535   18538   18532   18535   18537
   18532   18535   18536   18533   18532   18535   18533   18532   18534
   18534   18532   18535   18535   18538   18541   18535   18538   18540
   18535   18538   18539   18536   18535   18538   18536   18535   18537
   18537   18535   18538   18538   18541   18544   18538   18541   18543
   18538   18541   18542   18539   18538   18541   18539   18538   18540
   18540   18538   18541   18541   18544   18547   18541   18544   18546
   18541   18544   18545   18542   18541   18544   18542   18541   18543
   18543   18541   18544   18544   18547   18550   18544   18547   18549
   18544   18547   18548   18545   18544   18547   18545   18544   18546
   18546   18544   18547   18547   18550   18553   18547   18550   18552
   18547   18550   18551   18548   18547   18550   18548   18547   18549
   18549   18547   18550   18550   18553   18556   18550   18553   18555
   18550   18553   18554   18551   18550   18553   18551   18550   18552
   18552   18550   18553   18553   18556   18559   18553   18556   18558
   18553   18556   18557   18554   18553   18556   18554   18553   18555
   18555   18553   18556   18557   18556   18559   18557   18556   18558
   18558   18556   18559   18560   18573   18576   18560   18573   18575
   18560   18573   18574   18560   18569   18572   18560   18569   18571
   18560   18569   18570   18560   18565   18568   18560   18565   18567
   18560   18565   18566   18560   18561   18564   18560   18561   18563
   18560   18561   18562   18561   18560   18573   18561   18560   18569
   18561   18560   18565   18562   18561   18564   18562   18561   18563
   18563   18561   18564   18565   18560   18573   18565   18560   18569
   18566   18565   18568   18566   18565   18567   18567   18565   18568
   18569   18560   18573   18570   18569   18572   18570   18569   18571
   18571   18569   18572   18573   18576   18583   18573   18576   18578
   18573   18576   18577   18574   18573   18576   18574   18573   18575
   18575   18573   18576   18576   18583   18579   18577   18576   18583
   18577   18576   18578   18578   18576   18583   18579   18582   18584
   18580   18579   18581   18580   18579   18582   18580   18579   18583
   18581   18579   18582   18581   18579   18583   18582   18579   18583
   18582   18584   18585   18582   18584   18586   18582   18584   18587
   18584   18587   18589   18584   18587   18595   18584   18587   18588
   18585   18584   18587   18585   18584   18586   18586   18584   18587
   18587   18595   18598   18587   18595   18597   18587   18595   18596
   18587   18589   18590   18588   18587   18589   18588   18587   18595
   18589   18590   18591   18589   18590   18592   18589   18587   18595
   18590   18592   18604   18590   18592   18594   18590   18592   18593
   18591   18590   18592   18592   18604   18607   18592   18604   18606
   18592   18604   18605   18593   18592   18604   18593   18592   18594
   18594   18592   18604   18595   18598   18599   18596   18595   18598
   18596   18595   18597   18597   18595   18598   18598   18599   18600
   18598   18599   18601   18599   18601   18641   18599   18601   18603
   18599   18601   18602   18600   18599   18601   18601   18641   18644
   18601   18641   18643   18601   18641   18642   18602   18601   18641
   18602   18601   18603   18603   18601   18641   18604   18607   18610
   18604   18607   18609   18604   18607   18608   18605   18604   18607
   18605   18604   18606   18606   18604   18607   18607   18610   18613
   18607   18610   18612   18607   18610   18611   18608   18607   18610
   18608   18607   18609   18609   18607   18610   18610   18613   18616
   18610   18613   18615   18610   18613   18614   18611   18610   18613
   18611   18610   18612   18612   18610   18613   18613   18616   18619
   18613   18616   18618   18613   18616   18617   18614   18613   18616
   18614   18613   18615   18615   18613   18616   18616   18619   18622
   18616   18619   18621   18616   18619   18620   18617   18616   18619
   18617   18616   18618   18618   18616   18619   18619   18622   18625
   18619   18622   18624   18619   18622   18623   18620   18619   18622
   18620   18619   18621   18621   18619   18622   18622   18625   18628
   18622   18625   18627   18622   18625   18626   18623   18622   18625
   18623   18622   18624   18624   18622   18625   18625   18628   18631
   18625   18628   18630   18625   18628   18629   18626   18625   18628
   18626   18625   18627   18627   18625   18628   18628   18631   18634
   18628   18631   18633   18628   18631   18632   18629   18628   18631
   18629   18628   18630   18630   18628   18631   18631   18634   18637
   18631   18634   18636   18631   18634   18635   18632   18631   18634
   18632   18631   18633   18633   18631   18634   18634   18637   18640
   18634   18637   18639   18634   18637   18638   18635   18634   18637
   18635   18634   18636   18636   18634   18637   18638   18637   18640
   18638   18637   18639   18639   18637   18640   18641   18644   18647
   18641   18644   18646   18641   18644   18645   18642   18641   18644
   18642   18641   18643   18643   18641   18644   18644   18647   18650
   18644   18647   18649   18644   18647   18648   18645   18644   18647
   18645   18644   18646   18646   18644   18647   18647   18650   18653
   18647   18650   18652   18647   18650   18651   18648   18647   18650
   18648   18647   18649   18649   18647   18650   18650   18653   18656
   18650   18653   18655   18650   18653   18654   18651   18650   18653
   18651   18650   18652   18652   18650   18653   18653   18656   18659
   18653   18656   18658   18653   18656   18657   18654   18653   18656
   18654   18653   18655   18655   18653   18656   18656   18659   18662
   18656   18659   18661   18656   18659   18660   18657   18656   18659
   18657   18656   18658   18658   18656   18659   18659   18662   18665
   18659   18662   18664   18659   18662   18663   18660   18659   18662
   18660   18659   18661   18661   18659   18662   18662   18665   18668
   18662   18665   18667   18662   18665   18666   18663   18662   18665
   18663   18662   18664   18664   18662   18665   18665   18668   18671
   18665   18668   18670   18665   18668   18669   18666   18665   18668
   18666   18665   18667   18667   18665   18668   18668   18671   18674
   18668   18671   18673   18668   18671   18672   18669   18668   18671
   18669   18668   18670   18670   18668   18671   18671   18674   18677
   18671   18674   18676   18671   18674   18675   18672   18671   18674
   18672   18671   18673   18673   18671   18674   18675   18674   18677
   18675   18674   18676   18676   18674   18677   18678   18691   18694
   18678   18691   18693   18678   18691   18692   18678   18687   18690
   18678   18687   18689   18678   18687   18688   18678   18683   18686
   18678   18683   18685   18678   18683   18684   18678   18679   18682
   18678   18679   18681   18678   18679   18680   18679   18678   18691
   18679   18678   18687   18679   18678   18683   18680   18679   18682
   18680   18679   18681   18681   18679   18682   18683   18678   18691
   18683   18678   18687   18684   18683   18686   18684   18683   18685
   18685   18683   18686   18687   18678   18691   18688   18687   18690
   18688   18687   18689   18689   18687   18690   18691   18694   18701
   18691   18694   18696   18691   18694   18695   18692   18691   18694
   18692   18691   18693   18693   18691   18694   18694   18701   18697
   18695   18694   18701   18695   18694   18696   18696   18694   18701
   18697   18700   18702   18698   18697   18699   18698   18697   18700
   18698   18697   18701   18699   18697   18700   18699   18697   18701
   18700   18697   18701   18700   18702   18703   18700   18702   18704
   18700   18702   18705   18702   18705   18707   18702   18705   18713
   18702   18705   18706   18703   18702   18705   18703   18702   18704
   18704   18702   18705   18705   18713   18716   18705   18713   18715
   18705   18713   18714   18705   18707   18708   18706   18705   18707
   18706   18705   18713   18707   18708   18709   18707   18708   18710
   18707   18705   18713   18708   18710   18722   18708   18710   18712
   18708   18710   18711   18709   18708   18710   18710   18722   18725
   18710   18722   18724   18710   18722   18723   18711   18710   18722
   18711   18710   18712   18712   18710   18722   18713   18716   18717
   18714   18713   18716   18714   18713   18715   18715   18713   18716
   18716   18717   18718   18716   18717   18719   18717   18719   18759
   18717   18719   18721   18717   18719   18720   18718   18717   18719
   18719   18759   18762   18719   18759   18761   18719   18759   18760
   18720   18719   18759   18720   18719   18721   18721   18719   18759
   18722   18725   18728   18722   18725   18727   18722   18725   18726
   18723   18722   18725   18723   18722   18724   18724   18722   18725
   18725   18728   18731   18725   18728   18730   18725   18728   18729
   18726   18725   18728   18726   18725   18727   18727   18725   18728
   18728   18731   18734   18728   18731   18733   18728   18731   18732
   18729   18728   18731   18729   18728   18730   18730   18728   18731
   18731   18734   18737   18731   18734   18736   18731   18734   18735
   18732   18731   18734   18732   18731   18733   18733   18731   18734
   18734   18737   18740   18734   18737   18739   18734   18737   18738
   18735   18734   18737   18735   18734   18736   18736   18734   18737
   18737   18740   18743   18737   18740   18742   18737   18740   18741
   18738   18737   18740   18738   18737   18739   18739   18737   18740
   18740   18743   18746   18740   18743   18745   18740   18743   18744
   18741   18740   18743   18741   18740   18742   18742   18740   18743
   18743   18746   18749   18743   18746   18748   18743   18746   18747
   18744   18743   18746   18744   18743   18745   18745   18743   18746
   18746   18749   18752   18746   18749   18751   18746   18749   18750
   18747   18746   18749   18747   18746   18748   18748   18746   18749
   18749   18752   18755   18749   18752   18754   18749   18752   18753
   18750   18749   18752   18750   18749   18751   18751   18749   18752
   18752   18755   18758   18752   18755   18757   18752   18755   18756
   18753   18752   18755   18753   18752   18754   18754   18752   18755
   18756   18755   18758   18756   18755   18757   18757   18755   18758
   18759   18762   18765   18759   18762   18764   18759   18762   18763
   18760   18759   18762   18760   18759   18761   18761   18759   18762
   18762   18765   18768   18762   18765   18767   18762   18765   18766
   18763   18762   18765   18763   18762   18764   18764   18762   18765
   18765   18768   18771   18765   18768   18770   18765   18768   18769
   18766   18765   18768   18766   18765   18767   18767   18765   18768
   18768   18771   18774   18768   18771   18773   18768   18771   18772
   18769   18768   18771   18769   18768   18770   18770   18768   18771
   18771   18774   18777   18771   18774   18776   18771   18774   18775
   18772   18771   18774   18772   18771   18773   18773   18771   18774
   18774   18777   18780   18774   18777   18779   18774   18777   18778
   18775   18774   18777   18775   18774   18776   18776   18774   18777
   18777   18780   18783   18777   18780   18782   18777   18780   18781
   18778   18777   18780   18778   18777   18779   18779   18777   18780
   18780   18783   18786   18780   18783   18785   18780   18783   18784
   18781   18780   18783   18781   18780   18782   18782   18780   18783
   18783   18786   18789   18783   18786   18788   18783   18786   18787
   18784   18783   18786   18784   18783   18785   18785   18783   18786
   18786   18789   18792   18786   18789   18791   18786   18789   18790
   18787   18786   18789   18787   18786   18788   18788   18786   18789
   18789   18792   18795   18789   18792   18794   18789   18792   18793
   18790   18789   18792   18790   18789   18791   18791   18789   18792
   18793   18792   18795   18793   18792   18794   18794   18792   18795
   18796   18809   18812   18796   18809   18811   18796   18809   18810
   18796   18805   18808   18796   18805   18807   18796   18805   18806
   18796   18801   18804   18796   18801   18803   18796   18801   18802
   18796   18797   18800   18796   18797   18799   18796   18797   18798
   18797   18796   18809   18797   18796   18805   18797   18796   18801
   18798   18797   18800   18798   18797   18799   18799   18797   18800
   18801   18796   18809   18801   18796   18805   18802   18801   18804
   18802   18801   18803   18803   18801   18804   18805   18796   18809
   18806   18805   18808   18806   18805   18807   18807   18805   18808
   18809   18812   18819   18809   18812   18814   18809   18812   18813
   18810   18809   18812   18810   18809   18811   18811   18809   18812
   18812   18819   18815   18813   18812   18819   18813   18812   18814
   18814   18812   18819   18815   18818   18820   18816   18815   18817
   18816   18815   18818   18816   18815   18819   18817   18815   18818
   18817   18815   18819   18818   18815   18819   18818   18820   18821
   18818   18820   18822   18818   18820   18823   18820   18823   18825
   18820   18823   18831   18820   18823   18824   18821   18820   18823
   18821   18820   18822   18822   18820   18823   18823   18831   18834
   18823   18831   18833   18823   18831   18832   18823   18825   18826
   18824   18823   18825   18824   18823   18831   18825   18826   18827
   18825   18826   18828   18825   18823   18831   18826   18828   18840
   18826   18828   18830   18826   18828   18829   18827   18826   18828
   18828   18840   18843   18828   18840   18842   18828   18840   18841
   18829   18828   18840   18829   18828   18830   18830   18828   18840
   18831   18834   18835   18832   18831   18834   18832   18831   18833
   18833   18831   18834   18834   18835   18836   18834   18835   18837
   18835   18837   18877   18835   18837   18839   18835   18837   18838
   18836   18835   18837   18837   18877   18880   18837   18877   18879
   18837   18877   18878   18838   18837   18877   18838   18837   18839
   18839   18837   18877   18840   18843   18846   18840   18843   18845
   18840   18843   18844   18841   18840   18843   18841   18840   18842
   18842   18840   18843   18843   18846   18849   18843   18846   18848
   18843   18846   18847   18844   18843   18846   18844   18843   18845
   18845   18843   18846   18846   18849   18852   18846   18849   18851
   18846   18849   18850   18847   18846   18849   18847   18846   18848
   18848   18846   18849   18849   18852   18855   18849   18852   18854
   18849   18852   18853   18850   18849   18852   18850   18849   18851
   18851   18849   18852   18852   18855   18858   18852   18855   18857
   18852   18855   18856   18853   18852   18855   18853   18852   18854
   18854   18852   18855   18855   18858   18861   18855   18858   18860
   18855   18858   18859   18856   18855   18858   18856   18855   18857
   18857   18855   18858   18858   18861   18864   18858   18861   18863
   18858   18861   18862   18859   18858   18861   18859   18858   18860
   18860   18858   18861   18861   18864   18867   18861   18864   18866
   18861   18864   18865   18862   18861   18864   18862   18861   18863
   18863   18861   18864   18864   18867   18870   18864   18867   18869
   18864   18867   18868   18865   18864   18867   18865   18864   18866
   18866   18864   18867   18867   18870   18873   18867   18870   18872
   18867   18870   18871   18868   18867   18870   18868   18867   18869
   18869   18867   18870   18870   18873   18876   18870   18873   18875
   18870   18873   18874   18871   18870   18873   18871   18870   18872
   18872   18870   18873   18874   18873   18876   18874   18873   18875
   18875   18873   18876   18877   18880   18883   18877   18880   18882
   18877   18880   18881   18878   18877   18880   18878   18877   18879
   18879   18877   18880   18880   18883   18886   18880   18883   18885
   18880   18883   18884   18881   18880   18883   18881   18880   18882
   18882   18880   18883   18883   18886   18889   18883   18886   18888
   18883   18886   18887   18884   18883   18886   18884   18883   18885
   18885   18883   18886   18886   18889   18892   18886   18889   18891
   18886   18889   18890   18887   18886   18889   18887   18886   18888
   18888   18886   18889   18889   18892   18895   18889   18892   18894
   18889   18892   18893   18890   18889   18892   18890   18889   18891
   18891   18889   18892   18892   18895   18898   18892   18895   18897
   18892   18895   18896   18893   18892   18895   18893   18892   18894
   18894   18892   18895   18895   18898   18901   18895   18898   18900
   18895   18898   18899   18896   18895   18898   18896   18895   18897
   18897   18895   18898   18898   18901   18904   18898   18901   18903
   18898   18901   18902   18899   18898   18901   18899   18898   18900
   18900   18898   18901   18901   18904   18907   18901   18904   18906
   18901   18904   18905   18902   18901   18904   18902   18901   18903
   18903   18901   18904   18904   18907   18910   18904   18907   18909
   18904   18907   18908   18905   18904   18907   18905   18904   18906
   18906   18904   18907   18907   18910   18913   18907   18910   18912
   18907   18910   18911   18908   18907   18910   18908   18907   18909
   18909   18907   18910   18911   18910   18913   18911   18910   18912
   18912   18910   18913   18914   18927   18930   18914   18927   18929
   18914   18927   18928   18914   18923   18926   18914   18923   18925
   18914   18923   18924   18914   18919   18922   18914   18919   18921
   18914   18919   18920   18914   18915   18918   18914   18915   18917
   18914   18915   18916   18915   18914   18927   18915   18914   18923
   18915   18914   18919   18916   18915   18918   18916   18915   18917
   18917   18915   18918   18919   18914   18927   18919   18914   18923
   18920   18919   18922   18920   18919   18921   18921   18919   18922
   18923   18914   18927   18924   18923   18926   18924   18923   18925
   18925   18923   18926   18927   18930   18937   18927   18930   18932
   18927   18930   18931   18928   18927   18930   18928   18927   18929
   18929   18927   18930   18930   18937   18933   18931   18930   18937
   18931   18930   18932   18932   18930   18937   18933   18936   18938
   18934   18933   18935   18934   18933   18936   18934   18933   18937
   18935   18933   18936   18935   18933   18937   18936   18933   18937
   18936   18938   18939   18936   18938   18940   18936   18938   18941
   18938   18941   18943   18938   18941   18949   18938   18941   18942
   18939   18938   18941   18939   18938   18940   18940   18938   18941
   18941   18949   18952   18941   18949   18951   18941   18949   18950
   18941   18943   18944   18942   18941   18943   18942   18941   18949
   18943   18944   18945   18943   18944   18946   18943   18941   18949
   18944   18946   18958   18944   18946   18948   18944   18946   18947
   18945   18944   18946   18946   18958   18961   18946   18958   18960
   18946   18958   18959   18947   18946   18958   18947   18946   18948
   18948   18946   18958   18949   18952   18953   18950   18949   18952
   18950   18949   18951   18951   18949   18952   18952   18953   18954
   18952   18953   18955   18953   18955   18995   18953   18955   18957
   18953   18955   18956   18954   18953   18955   18955   18995   18998
   18955   18995   18997   18955   18995   18996   18956   18955   18995
   18956   18955   18957   18957   18955   18995   18958   18961   18964
   18958   18961   18963   18958   18961   18962   18959   18958   18961
   18959   18958   18960   18960   18958   18961   18961   18964   18967
   18961   18964   18966   18961   18964   18965   18962   18961   18964
   18962   18961   18963   18963   18961   18964   18964   18967   18970
   18964   18967   18969   18964   18967   18968   18965   18964   18967
   18965   18964   18966   18966   18964   18967   18967   18970   18973
   18967   18970   18972   18967   18970   18971   18968   18967   18970
   18968   18967   18969   18969   18967   18970   18970   18973   18976
   18970   18973   18975   18970   18973   18974   18971   18970   18973
   18971   18970   18972   18972   18970   18973   18973   18976   18979
   18973   18976   18978   18973   18976   18977   18974   18973   18976
   18974   18973   18975   18975   18973   18976   18976   18979   18982
   18976   18979   18981   18976   18979   18980   18977   18976   18979
   18977   18976   18978   18978   18976   18979   18979   18982   18985
   18979   18982   18984   18979   18982   18983   18980   18979   18982
   18980   18979   18981   18981   18979   18982   18982   18985   18988
   18982   18985   18987   18982   18985   18986   18983   18982   18985
   18983   18982   18984   18984   18982   18985   18985   18988   18991
   18985   18988   18990   18985   18988   18989   18986   18985   18988
   18986   18985   18987   18987   18985   18988   18988   18991   18994
   18988   18991   18993   18988   18991   18992   18989   18988   18991
   18989   18988   18990   18990   18988   18991   18992   18991   18994
   18992   18991   18993   18993   18991   18994   18995   18998   19001
   18995   18998   19000   18995   18998   18999   18996   18995   18998
   18996   18995   18997   18997   18995   18998   18998   19001   19004
   18998   19001   19003   18998   19001   19002   18999   18998   19001
   18999   18998   19000   19000   18998   19001   19001   19004   19007
   19001   19004   19006   19001   19004   19005   19002   19001   19004
   19002   19001   19003   19003   19001   19004   19004   19007   19010
   19004   19007   19009   19004   19007   19008   19005   19004   19007
   19005   19004   19006   19006   19004   19007   19007   19010   19013
   19007   19010   19012   19007   19010   19011   19008   19007   19010
   19008   19007   19009   19009   19007   19010   19010   19013   19016
   19010   19013   19015   19010   19013   19014   19011   19010   19013
   19011   19010   19012   19012   19010   19013   19013   19016   19019
   19013   19016   19018   19013   19016   19017   19014   19013   19016
   19014   19013   19015   19015   19013   19016   19016   19019   19022
   19016   19019   19021   19016   19019   19020   19017   19016   19019
   19017   19016   19018   19018   19016   19019   19019   19022   19025
   19019   19022   19024   19019   19022   19023   19020   19019   19022
   19020   19019   19021   19021   19019   19022   19022   19025   19028
   19022   19025   19027   19022   19025   19026   19023   19022   19025
   19023   19022   19024   19024   19022   19025   19025   19028   19031
   19025   19028   19030   19025   19028   19029   19026   19025   19028
   19026   19025   19027   19027   19025   19028   19029   19028   19031
   19029   19028   19030   19030   19028   19031   19032   19045   19048
   19032   19045   19047   19032   19045   19046   19032   19041   19044
   19032   19041   19043   19032   19041   19042   19032   19037   19040
   19032   19037   19039   19032   19037   19038   19032   19033   19036
   19032   19033   19035   19032   19033   19034   19033   19032   19045
   19033   19032   19041   19033   19032   19037   19034   19033   19036
   19034   19033   19035   19035   19033   19036   19037   19032   19045
   19037   19032   19041   19038   19037   19040   19038   19037   19039
   19039   19037   19040   19041   19032   19045   19042   19041   19044
   19042   19041   19043   19043   19041   19044   19045   19048   19055
   19045   19048   19050   19045   19048   19049   19046   19045   19048
   19046   19045   19047   19047   19045   19048   19048   19055   19051
   19049   19048   19055   19049   19048   19050   19050   19048   19055
   19051   19054   19056   19052   19051   19053   19052   19051   19054
   19052   19051   19055   19053   19051   19054   19053   19051   19055
   19054   19051   19055   19054   19056   19057   19054   19056   19058
   19054   19056   19059   19056   19059   19061   19056   19059   19067
   19056   19059   19060   19057   19056   19059   19057   19056   19058
   19058   19056   19059   19059   19067   19070   19059   19067   19069
   19059   19067   19068   19059   19061   19062   19060   19059   19061
   19060   19059   19067   19061   19062   19063   19061   19062   19064
   19061   19059   19067   19062   19064   19076   19062   19064   19066
   19062   19064   19065   19063   19062   19064   19064   19076   19079
   19064   19076   19078   19064   19076   19077   19065   19064   19076
   19065   19064   19066   19066   19064   19076   19067   19070   19071
   19068   19067   19070   19068   19067   19069   19069   19067   19070
   19070   19071   19072   19070   19071   19073   19071   19073   19113
   19071   19073   19075   19071   19073   19074   19072   19071   19073
   19073   19113   19116   19073   19113   19115   19073   19113   19114
   19074   19073   19113   19074   19073   19075   19075   19073   19113
   19076   19079   19082   19076   19079   19081   19076   19079   19080
   19077   19076   19079   19077   19076   19078   19078   19076   19079
   19079   19082   19085   19079   19082   19084   19079   19082   19083
   19080   19079   19082   19080   19079   19081   19081   19079   19082
   19082   19085   19088   19082   19085   19087   19082   19085   19086
   19083   19082   19085   19083   19082   19084   19084   19082   19085
   19085   19088   19091   19085   19088   19090   19085   19088   19089
   19086   19085   19088   19086   19085   19087   19087   19085   19088
   19088   19091   19094   19088   19091   19093   19088   19091   19092
   19089   19088   19091   19089   19088   19090   19090   19088   19091
   19091   19094   19097   19091   19094   19096   19091   19094   19095
   19092   19091   19094   19092   19091   19093   19093   19091   19094
   19094   19097   19100   19094   19097   19099   19094   19097   19098
   19095   19094   19097   19095   19094   19096   19096   19094   19097
   19097   19100   19103   19097   19100   19102   19097   19100   19101
   19098   19097   19100   19098   19097   19099   19099   19097   19100
   19100   19103   19106   19100   19103   19105   19100   19103   19104
   19101   19100   19103   19101   19100   19102   19102   19100   19103
   19103   19106   19109   19103   19106   19108   19103   19106   19107
   19104   19103   19106   19104   19103   19105   19105   19103   19106
   19106   19109   19112   19106   19109   19111   19106   19109   19110
   19107   19106   19109   19107   19106   19108   19108   19106   19109
   19110   19109   19112   19110   19109   19111   19111   19109   19112
   19113   19116   19119   19113   19116   19118   19113   19116   19117
   19114   19113   19116   19114   19113   19115   19115   19113   19116
   19116   19119   19122   19116   19119   19121   19116   19119   19120
   19117   19116   19119   19117   19116   19118   19118   19116   19119
   19119   19122   19125   19119   19122   19124   19119   19122   19123
   19120   19119   19122   19120   19119   19121   19121   19119   19122
   19122   19125   19128   19122   19125   19127   19122   19125   19126
   19123   19122   19125   19123   19122   19124   19124   19122   19125
   19125   19128   19131   19125   19128   19130   19125   19128   19129
   19126   19125   19128   19126   19125   19127   19127   19125   19128
   19128   19131   19134   19128   19131   19133   19128   19131   19132
   19129   19128   19131   19129   19128   19130   19130   19128   19131
   19131   19134   19137   19131   19134   19136   19131   19134   19135
   19132   19131   19134   19132   19131   19133   19133   19131   19134
   19134   19137   19140   19134   19137   19139   19134   19137   19138
   19135   19134   19137   19135   19134   19136   19136   19134   19137
   19137   19140   19143   19137   19140   19142   19137   19140   19141
   19138   19137   19140   19138   19137   19139   19139   19137   19140
   19140   19143   19146   19140   19143   19145   19140   19143   19144
   19141   19140   19143   19141   19140   19142   19142   19140   19143
   19143   19146   19149   19143   19146   19148   19143   19146   19147
   19144   19143   19146   19144   19143   19145   19145   19143   19146
   19147   19146   19149   19147   19146   19148   19148   19146   19149
   19150   19163   19166   19150   19163   19165   19150   19163   19164
   19150   19159   19162   19150   19159   19161   19150   19159   19160
   19150   19155   19158   19150   19155   19157   19150   19155   19156
   19150   19151   19154   19150   19151   19153   19150   19151   19152
   19151   19150   19163   19151   19150   19159   19151   19150   19155
   19152   19151   19154   19152   19151   19153   19153   19151   19154
   19155   19150   19163   19155   19150   19159   19156   19155   19158
   19156   19155   19157   19157   19155   19158   19159   19150   19163
   19160   19159   19162   19160   19159   19161   19161   19159   19162
   19163   19166   19173   19163   19166   19168   19163   19166   19167
   19164   19163   19166   19164   19163   19165   19165   19163   19166
   19166   19173   19169   19167   19166   19173   19167   19166   19168
   19168   19166   19173   19169   19172   19174   19170   19169   19171
   19170   19169   19172   19170   19169   19173   19171   19169   19172
   19171   19169   19173   19172   19169   19173   19172   19174   19175
   19172   19174   19176   19172   19174   19177   19174   19177   19179
   19174   19177   19185   19174   19177   19178   19175   19174   19177
   19175   19174   19176   19176   19174   19177   19177   19185   19188
   19177   19185   19187   19177   19185   19186   19177   19179   19180
   19178   19177   19179   19178   19177   19185   19179   19180   19181
   19179   19180   19182   19179   19177   19185   19180   19182   19194
   19180   19182   19184   19180   19182   19183   19181   19180   19182
   19182   19194   19197   19182   19194   19196   19182   19194   19195
   19183   19182   19194   19183   19182   19184   19184   19182   19194
   19185   19188   19189   19186   19185   19188   19186   19185   19187
   19187   19185   19188   19188   19189   19190   19188   19189   19191
   19189   19191   19231   19189   19191   19193   19189   19191   19192
   19190   19189   19191   19191   19231   19234   19191   19231   19233
   19191   19231   19232   19192   19191   19231   19192   19191   19193
   19193   19191   19231   19194   19197   19200   19194   19197   19199
   19194   19197   19198   19195   19194   19197   19195   19194   19196
   19196   19194   19197   19197   19200   19203   19197   19200   19202
   19197   19200   19201   19198   19197   19200   19198   19197   19199
   19199   19197   19200   19200   19203   19206   19200   19203   19205
   19200   19203   19204   19201   19200   19203   19201   19200   19202
   19202   19200   19203   19203   19206   19209   19203   19206   19208
   19203   19206   19207   19204   19203   19206   19204   19203   19205
   19205   19203   19206   19206   19209   19212   19206   19209   19211
   19206   19209   19210   19207   19206   19209   19207   19206   19208
   19208   19206   19209   19209   19212   19215   19209   19212   19214
   19209   19212   19213   19210   19209   19212   19210   19209   19211
   19211   19209   19212   19212   19215   19218   19212   19215   19217
   19212   19215   19216   19213   19212   19215   19213   19212   19214
   19214   19212   19215   19215   19218   19221   19215   19218   19220
   19215   19218   19219   19216   19215   19218   19216   19215   19217
   19217   19215   19218   19218   19221   19224   19218   19221   19223
   19218   19221   19222   19219   19218   19221   19219   19218   19220
   19220   19218   19221   19221   19224   19227   19221   19224   19226
   19221   19224   19225   19222   19221   19224   19222   19221   19223
   19223   19221   19224   19224   19227   19230   19224   19227   19229
   19224   19227   19228   19225   19224   19227   19225   19224   19226
   19226   19224   19227   19228   19227   19230   19228   19227   19229
   19229   19227   19230   19231   19234   19237   19231   19234   19236
   19231   19234   19235   19232   19231   19234   19232   19231   19233
   19233   19231   19234   19234   19237   19240   19234   19237   19239
   19234   19237   19238   19235   19234   19237   19235   19234   19236
   19236   19234   19237   19237   19240   19243   19237   19240   19242
   19237   19240   19241   19238   19237   19240   19238   19237   19239
   19239   19237   19240   19240   19243   19246   19240   19243   19245
   19240   19243   19244   19241   19240   19243   19241   19240   19242
   19242   19240   19243   19243   19246   19249   19243   19246   19248
   19243   19246   19247   19244   19243   19246   19244   19243   19245
   19245   19243   19246   19246   19249   19252   19246   19249   19251
   19246   19249   19250   19247   19246   19249   19247   19246   19248
   19248   19246   19249   19249   19252   19255   19249   19252   19254
   19249   19252   19253   19250   19249   19252   19250   19249   19251
   19251   19249   19252   19252   19255   19258   19252   19255   19257
   19252   19255   19256   19253   19252   19255   19253   19252   19254
   19254   19252   19255   19255   19258   19261   19255   19258   19260
   19255   19258   19259   19256   19255   19258   19256   19255   19257
   19257   19255   19258   19258   19261   19264   19258   19261   19263
   19258   19261   19262   19259   19258   19261   19259   19258   19260
   19260   19258   19261   19261   19264   19267   19261   19264   19266
   19261   19264   19265   19262   19261   19264   19262   19261   19263
   19263   19261   19264   19265   19264   19267   19265   19264   19266
   19266   19264   19267   19268   19281   19284   19268   19281   19283
   19268   19281   19282   19268   19277   19280   19268   19277   19279
   19268   19277   19278   19268   19273   19276   19268   19273   19275
   19268   19273   19274   19268   19269   19272   19268   19269   19271
   19268   19269   19270   19269   19268   19281   19269   19268   19277
   19269   19268   19273   19270   19269   19272   19270   19269   19271
   19271   19269   19272   19273   19268   19281   19273   19268   19277
   19274   19273   19276   19274   19273   19275   19275   19273   19276
   19277   19268   19281   19278   19277   19280   19278   19277   19279
   19279   19277   19280   19281   19284   19291   19281   19284   19286
   19281   19284   19285   19282   19281   19284   19282   19281   19283
   19283   19281   19284   19284   19291   19287   19285   19284   19291
   19285   19284   19286   19286   19284   19291   19287   19290   19292
   19288   19287   19289   19288   19287   19290   19288   19287   19291
   19289   19287   19290   19289   19287   19291   19290   19287   19291
   19290   19292   19293   19290   19292   19294   19290   19292   19295
   19292   19295   19297   19292   19295   19303   19292   19295   19296
   19293   19292   19295   19293   19292   19294   19294   19292   19295
   19295   19303   19306   19295   19303   19305   19295   19303   19304
   19295   19297   19298   19296   19295   19297   19296   19295   19303
   19297   19298   19299   19297   19298   19300   19297   19295   19303
   19298   19300   19312   19298   19300   19302   19298   19300   19301
   19299   19298   19300   19300   19312   19315   19300   19312   19314
   19300   19312   19313   19301   19300   19312   19301   19300   19302
   19302   19300   19312   19303   19306   19307   19304   19303   19306
   19304   19303   19305   19305   19303   19306   19306   19307   19308
   19306   19307   19309   19307   19309   19349   19307   19309   19311
   19307   19309   19310   19308   19307   19309   19309   19349   19352
   19309   19349   19351   19309   19349   19350   19310   19309   19349
   19310   19309   19311   19311   19309   19349   19312   19315   19318
   19312   19315   19317   19312   19315   19316   19313   19312   19315
   19313   19312   19314   19314   19312   19315   19315   19318   19321
   19315   19318   19320   19315   19318   19319   19316   19315   19318
   19316   19315   19317   19317   19315   19318   19318   19321   19324
   19318   19321   19323   19318   19321   19322   19319   19318   19321
   19319   19318   19320   19320   19318   19321   19321   19324   19327
   19321   19324   19326   19321   19324   19325   19322   19321   19324
   19322   19321   19323   19323   19321   19324   19324   19327   19330
   19324   19327   19329   19324   19327   19328   19325   19324   19327
   19325   19324   19326   19326   19324   19327   19327   19330   19333
   19327   19330   19332   19327   19330   19331   19328   19327   19330
   19328   19327   19329   19329   19327   19330   19330   19333   19336
   19330   19333   19335   19330   19333   19334   19331   19330   19333
   19331   19330   19332   19332   19330   19333   19333   19336   19339
   19333   19336   19338   19333   19336   19337   19334   19333   19336
   19334   19333   19335   19335   19333   19336   19336   19339   19342
   19336   19339   19341   19336   19339   19340   19337   19336   19339
   19337   19336   19338   19338   19336   19339   19339   19342   19345
   19339   19342   19344   19339   19342   19343   19340   19339   19342
   19340   19339   19341   19341   19339   19342   19342   19345   19348
   19342   19345   19347   19342   19345   19346   19343   19342   19345
   19343   19342   19344   19344   19342   19345   19346   19345   19348
   19346   19345   19347   19347   19345   19348   19349   19352   19355
   19349   19352   19354   19349   19352   19353   19350   19349   19352
   19350   19349   19351   19351   19349   19352   19352   19355   19358
   19352   19355   19357   19352   19355   19356   19353   19352   19355
   19353   19352   19354   19354   19352   19355   19355   19358   19361
   19355   19358   19360   19355   19358   19359   19356   19355   19358
   19356   19355   19357   19357   19355   19358   19358   19361   19364
   19358   19361   19363   19358   19361   19362   19359   19358   19361
   19359   19358   19360   19360   19358   19361   19361   19364   19367
   19361   19364   19366   19361   19364   19365   19362   19361   19364
   19362   19361   19363   19363   19361   19364   19364   19367   19370
   19364   19367   19369   19364   19367   19368   19365   19364   19367
   19365   19364   19366   19366   19364   19367   19367   19370   19373
   19367   19370   19372   19367   19370   19371   19368   19367   19370
   19368   19367   19369   19369   19367   19370   19370   19373   19376
   19370   19373   19375   19370   19373   19374   19371   19370   19373
   19371   19370   19372   19372   19370   19373   19373   19376   19379
   19373   19376   19378   19373   19376   19377   19374   19373   19376
   19374   19373   19375   19375   19373   19376   19376   19379   19382
   19376   19379   19381   19376   19379   19380   19377   19376   19379
   19377   19376   19378   19378   19376   19379   19379   19382   19385
   19379   19382   19384   19379   19382   19383   19380   19379   19382
   19380   19379   19381   19381   19379   19382   19383   19382   19385
   19383   19382   19384   19384   19382   19385   19386   19399   19402
   19386   19399   19401   19386   19399   19400   19386   19395   19398
   19386   19395   19397   19386   19395   19396   19386   19391   19394
   19386   19391   19393   19386   19391   19392   19386   19387   19390
   19386   19387   19389   19386   19387   19388   19387   19386   19399
   19387   19386   19395   19387   19386   19391   19388   19387   19390
   19388   19387   19389   19389   19387   19390   19391   19386   19399
   19391   19386   19395   19392   19391   19394   19392   19391   19393
   19393   19391   19394   19395   19386   19399   19396   19395   19398
   19396   19395   19397   19397   19395   19398   19399   19402   19409
   19399   19402   19404   19399   19402   19403   19400   19399   19402
   19400   19399   19401   19401   19399   19402   19402   19409   19405
   19403   19402   19409   19403   19402   19404   19404   19402   19409
   19405   19408   19410   19406   19405   19407   19406   19405   19408
   19406   19405   19409   19407   19405   19408   19407   19405   19409
   19408   19405   19409   19408   19410   19411   19408   19410   19412
   19408   19410   19413   19410   19413   19415   19410   19413   19421
   19410   19413   19414   19411   19410   19413   19411   19410   19412
   19412   19410   19413   19413   19421   19424   19413   19421   19423
   19413   19421   19422   19413   19415   19416   19414   19413   19415
   19414   19413   19421   19415   19416   19417   19415   19416   19418
   19415   19413   19421   19416   19418   19430   19416   19418   19420
   19416   19418   19419   19417   19416   19418   19418   19430   19433
   19418   19430   19432   19418   19430   19431   19419   19418   19430
   19419   19418   19420   19420   19418   19430   19421   19424   19425
   19422   19421   19424   19422   19421   19423   19423   19421   19424
   19424   19425   19426   19424   19425   19427   19425   19427   19467
   19425   19427   19429   19425   19427   19428   19426   19425   19427
   19427   19467   19470   19427   19467   19469   19427   19467   19468
   19428   19427   19467   19428   19427   19429   19429   19427   19467
   19430   19433   19436   19430   19433   19435   19430   19433   19434
   19431   19430   19433   19431   19430   19432   19432   19430   19433
   19433   19436   19439   19433   19436   19438   19433   19436   19437
   19434   19433   19436   19434   19433   19435   19435   19433   19436
   19436   19439   19442   19436   19439   19441   19436   19439   19440
   19437   19436   19439   19437   19436   19438   19438   19436   19439
   19439   19442   19445   19439   19442   19444   19439   19442   19443
   19440   19439   19442   19440   19439   19441   19441   19439   19442
   19442   19445   19448   19442   19445   19447   19442   19445   19446
   19443   19442   19445   19443   19442   19444   19444   19442   19445
   19445   19448   19451   19445   19448   19450   19445   19448   19449
   19446   19445   19448   19446   19445   19447   19447   19445   19448
   19448   19451   19454   19448   19451   19453   19448   19451   19452
   19449   19448   19451   19449   19448   19450   19450   19448   19451
   19451   19454   19457   19451   19454   19456   19451   19454   19455
   19452   19451   19454   19452   19451   19453   19453   19451   19454
   19454   19457   19460   19454   19457   19459   19454   19457   19458
   19455   19454   19457   19455   19454   19456   19456   19454   19457
   19457   19460   19463   19457   19460   19462   19457   19460   19461
   19458   19457   19460   19458   19457   19459   19459   19457   19460
   19460   19463   19466   19460   19463   19465   19460   19463   19464
   19461   19460   19463   19461   19460   19462   19462   19460   19463
   19464   19463   19466   19464   19463   19465   19465   19463   19466
   19467   19470   19473   19467   19470   19472   19467   19470   19471
   19468   19467   19470   19468   19467   19469   19469   19467   19470
   19470   19473   19476   19470   19473   19475   19470   19473   19474
   19471   19470   19473   19471   19470   19472   19472   19470   19473
   19473   19476   19479   19473   19476   19478   19473   19476   19477
   19474   19473   19476   19474   19473   19475   19475   19473   19476
   19476   19479   19482   19476   19479   19481   19476   19479   19480
   19477   19476   19479   19477   19476   19478   19478   19476   19479
   19479   19482   19485   19479   19482   19484   19479   19482   19483
   19480   19479   19482   19480   19479   19481   19481   19479   19482
   19482   19485   19488   19482   19485   19487   19482   19485   19486
   19483   19482   19485   19483   19482   19484   19484   19482   19485
   19485   19488   19491   19485   19488   19490   19485   19488   19489
   19486   19485   19488   19486   19485   19487   19487   19485   19488
   19488   19491   19494   19488   19491   19493   19488   19491   19492
   19489   19488   19491   19489   19488   19490   19490   19488   19491
   19491   19494   19497   19491   19494   19496   19491   19494   19495
   19492   19491   19494   19492   19491   19493   19493   19491   19494
   19494   19497   19500   19494   19497   19499   19494   19497   19498
   19495   19494   19497   19495   19494   19496   19496   19494   19497
   19497   19500   19503   19497   19500   19502   19497   19500   19501
   19498   19497   19500   19498   19497   19499   19499   19497   19500
   19501   19500   19503   19501   19500   19502   19502   19500   19503
   19504   19517   19520   19504   19517   19519   19504   19517   19518
   19504   19513   19516   19504   19513   19515   19504   19513   19514
   19504   19509   19512   19504   19509   19511   19504   19509   19510
   19504   19505   19508   19504   19505   19507   19504   19505   19506
   19505   19504   19517   19505   19504   19513   19505   19504   19509
   19506   19505   19508   19506   19505   19507   19507   19505   19508
   19509   19504   19517   19509   19504   19513   19510   19509   19512
   19510   19509   19511   19511   19509   19512   19513   19504   19517
   19514   19513   19516   19514   19513   19515   19515   19513   19516
   19517   19520   19527   19517   19520   19522   19517   19520   19521
   19518   19517   19520   19518   19517   19519   19519   19517   19520
   19520   19527   19523   19521   19520   19527   19521   19520   19522
   19522   19520   19527   19523   19526   19528   19524   19523   19525
   19524   19523   19526   19524   19523   19527   19525   19523   19526
   19525   19523   19527   19526   19523   19527   19526   19528   19529
   19526   19528   19530   19526   19528   19531   19528   19531   19533
   19528   19531   19539   19528   19531   19532   19529   19528   19531
   19529   19528   19530   19530   19528   19531   19531   19539   19542
   19531   19539   19541   19531   19539   19540   19531   19533   19534
   19532   19531   19533   19532   19531   19539   19533   19534   19535
   19533   19534   19536   19533   19531   19539   19534   19536   19548
   19534   19536   19538   19534   19536   19537   19535   19534   19536
   19536   19548   19551   19536   19548   19550   19536   19548   19549
   19537   19536   19548   19537   19536   19538   19538   19536   19548
   19539   19542   19543   19540   19539   19542   19540   19539   19541
   19541   19539   19542   19542   19543   19544   19542   19543   19545
   19543   19545   19585   19543   19545   19547   19543   19545   19546
   19544   19543   19545   19545   19585   19588   19545   19585   19587
   19545   19585   19586   19546   19545   19585   19546   19545   19547
   19547   19545   19585   19548   19551   19554   19548   19551   19553
   19548   19551   19552   19549   19548   19551   19549   19548   19550
   19550   19548   19551   19551   19554   19557   19551   19554   19556
   19551   19554   19555   19552   19551   19554   19552   19551   19553
   19553   19551   19554   19554   19557   19560   19554   19557   19559
   19554   19557   19558   19555   19554   19557   19555   19554   19556
   19556   19554   19557   19557   19560   19563   19557   19560   19562
   19557   19560   19561   19558   19557   19560   19558   19557   19559
   19559   19557   19560   19560   19563   19566   19560   19563   19565
   19560   19563   19564   19561   19560   19563   19561   19560   19562
   19562   19560   19563   19563   19566   19569   19563   19566   19568
   19563   19566   19567   19564   19563   19566   19564   19563   19565
   19565   19563   19566   19566   19569   19572   19566   19569   19571
   19566   19569   19570   19567   19566   19569   19567   19566   19568
   19568   19566   19569   19569   19572   19575   19569   19572   19574
   19569   19572   19573   19570   19569   19572   19570   19569   19571
   19571   19569   19572   19572   19575   19578   19572   19575   19577
   19572   19575   19576   19573   19572   19575   19573   19572   19574
   19574   19572   19575   19575   19578   19581   19575   19578   19580
   19575   19578   19579   19576   19575   19578   19576   19575   19577
   19577   19575   19578   19578   19581   19584   19578   19581   19583
   19578   19581   19582   19579   19578   19581   19579   19578   19580
   19580   19578   19581   19582   19581   19584   19582   19581   19583
   19583   19581   19584   19585   19588   19591   19585   19588   19590
   19585   19588   19589   19586   19585   19588   19586   19585   19587
   19587   19585   19588   19588   19591   19594   19588   19591   19593
   19588   19591   19592   19589   19588   19591   19589   19588   19590
   19590   19588   19591   19591   19594   19597   19591   19594   19596
   19591   19594   19595   19592   19591   19594   19592   19591   19593
   19593   19591   19594   19594   19597   19600   19594   19597   19599
   19594   19597   19598   19595   19594   19597   19595   19594   19596
   19596   19594   19597   19597   19600   19603   19597   19600   19602
   19597   19600   19601   19598   19597   19600   19598   19597   19599
   19599   19597   19600   19600   19603   19606   19600   19603   19605
   19600   19603   19604   19601   19600   19603   19601   19600   19602
   19602   19600   19603   19603   19606   19609   19603   19606   19608
   19603   19606   19607   19604   19603   19606   19604   19603   19605
   19605   19603   19606   19606   19609   19612   19606   19609   19611
   19606   19609   19610   19607   19606   19609   19607   19606   19608
   19608   19606   19609   19609   19612   19615   19609   19612   19614
   19609   19612   19613   19610   19609   19612   19610   19609   19611
   19611   19609   19612   19612   19615   19618   19612   19615   19617
   19612   19615   19616   19613   19612   19615   19613   19612   19614
   19614   19612   19615   19615   19618   19621   19615   19618   19620
   19615   19618   19619   19616   19615   19618   19616   19615   19617
   19617   19615   19618   19619   19618   19621   19619   19618   19620
   19620   19618   19621   19622   19635   19638   19622   19635   19637
   19622   19635   19636   19622   19631   19634   19622   19631   19633
   19622   19631   19632   19622   19627   19630   19622   19627   19629
   19622   19627   19628   19622   19623   19626   19622   19623   19625
   19622   19623   19624   19623   19622   19635   19623   19622   19631
   19623   19622   19627   19624   19623   19626   19624   19623   19625
   19625   19623   19626   19627   19622   19635   19627   19622   19631
   19628   19627   19630   19628   19627   19629   19629   19627   19630
   19631   19622   19635   19632   19631   19634   19632   19631   19633
   19633   19631   19634   19635   19638   19645   19635   19638   19640
   19635   19638   19639   19636   19635   19638   19636   19635   19637
   19637   19635   19638   19638   19645   19641   19639   19638   19645
   19639   19638   19640   19640   19638   19645   19641   19644   19646
   19642   19641   19643   19642   19641   19644   19642   19641   19645
   19643   19641   19644   19643   19641   19645   19644   19641   19645
   19644   19646   19647   19644   19646   19648   19644   19646   19649
   19646   19649   19651   19646   19649   19657   19646   19649   19650
   19647   19646   19649   19647   19646   19648   19648   19646   19649
   19649   19657   19660   19649   19657   19659   19649   19657   19658
   19649   19651   19652   19650   19649   19651   19650   19649   19657
   19651   19652   19653   19651   19652   19654   19651   19649   19657
   19652   19654   19666   19652   19654   19656   19652   19654   19655
   19653   19652   19654   19654   19666   19669   19654   19666   19668
   19654   19666   19667   19655   19654   19666   19655   19654   19656
   19656   19654   19666   19657   19660   19661   19658   19657   19660
   19658   19657   19659   19659   19657   19660   19660   19661   19662
   19660   19661   19663   19661   19663   19703   19661   19663   19665
   19661   19663   19664   19662   19661   19663   19663   19703   19706
   19663   19703   19705   19663   19703   19704   19664   19663   19703
   19664   19663   19665   19665   19663   19703   19666   19669   19672
   19666   19669   19671   19666   19669   19670   19667   19666   19669
   19667   19666   19668   19668   19666   19669   19669   19672   19675
   19669   19672   19674   19669   19672   19673   19670   19669   19672
   19670   19669   19671   19671   19669   19672   19672   19675   19678
   19672   19675   19677   19672   19675   19676   19673   19672   19675
   19673   19672   19674   19674   19672   19675   19675   19678   19681
   19675   19678   19680   19675   19678   19679   19676   19675   19678
   19676   19675   19677   19677   19675   19678   19678   19681   19684
   19678   19681   19683   19678   19681   19682   19679   19678   19681
   19679   19678   19680   19680   19678   19681   19681   19684   19687
   19681   19684   19686   19681   19684   19685   19682   19681   19684
   19682   19681   19683   19683   19681   19684   19684   19687   19690
   19684   19687   19689   19684   19687   19688   19685   19684   19687
   19685   19684   19686   19686   19684   19687   19687   19690   19693
   19687   19690   19692   19687   19690   19691   19688   19687   19690
   19688   19687   19689   19689   19687   19690   19690   19693   19696
   19690   19693   19695   19690   19693   19694   19691   19690   19693
   19691   19690   19692   19692   19690   19693   19693   19696   19699
   19693   19696   19698   19693   19696   19697   19694   19693   19696
   19694   19693   19695   19695   19693   19696   19696   19699   19702
   19696   19699   19701   19696   19699   19700   19697   19696   19699
   19697   19696   19698   19698   19696   19699   19700   19699   19702
   19700   19699   19701   19701   19699   19702   19703   19706   19709
   19703   19706   19708   19703   19706   19707   19704   19703   19706
   19704   19703   19705   19705   19703   19706   19706   19709   19712
   19706   19709   19711   19706   19709   19710   19707   19706   19709
   19707   19706   19708   19708   19706   19709   19709   19712   19715
   19709   19712   19714   19709   19712   19713   19710   19709   19712
   19710   19709   19711   19711   19709   19712   19712   19715   19718
   19712   19715   19717   19712   19715   19716   19713   19712   19715
   19713   19712   19714   19714   19712   19715   19715   19718   19721
   19715   19718   19720   19715   19718   19719   19716   19715   19718
   19716   19715   19717   19717   19715   19718   19718   19721   19724
   19718   19721   19723   19718   19721   19722   19719   19718   19721
   19719   19718   19720   19720   19718   19721   19721   19724   19727
   19721   19724   19726   19721   19724   19725   19722   19721   19724
   19722   19721   19723   19723   19721   19724   19724   19727   19730
   19724   19727   19729   19724   19727   19728   19725   19724   19727
   19725   19724   19726   19726   19724   19727   19727   19730   19733
   19727   19730   19732   19727   19730   19731   19728   19727   19730
   19728   19727   19729   19729   19727   19730   19730   19733   19736
   19730   19733   19735   19730   19733   19734   19731   19730   19733
   19731   19730   19732   19732   19730   19733   19733   19736   19739
   19733   19736   19738   19733   19736   19737   19734   19733   19736
   19734   19733   19735   19735   19733   19736   19737   19736   19739
   19737   19736   19738   19738   19736   19739   19740   19753   19756
   19740   19753   19755   19740   19753   19754   19740   19749   19752
   19740   19749   19751   19740   19749   19750   19740   19745   19748
   19740   19745   19747   19740   19745   19746   19740   19741   19744
   19740   19741   19743   19740   19741   19742   19741   19740   19753
   19741   19740   19749   19741   19740   19745   19742   19741   19744
   19742   19741   19743   19743   19741   19744   19745   19740   19753
   19745   19740   19749   19746   19745   19748   19746   19745   19747
   19747   19745   19748   19749   19740   19753   19750   19749   19752
   19750   19749   19751   19751   19749   19752   19753   19756   19763
   19753   19756   19758   19753   19756   19757   19754   19753   19756
   19754   19753   19755   19755   19753   19756   19756   19763   19759
   19757   19756   19763   19757   19756   19758   19758   19756   19763
   19759   19762   19764   19760   19759   19761   19760   19759   19762
   19760   19759   19763   19761   19759   19762   19761   19759   19763
   19762   19759   19763   19762   19764   19765   19762   19764   19766
   19762   19764   19767   19764   19767   19769   19764   19767   19775
   19764   19767   19768   19765   19764   19767   19765   19764   19766
   19766   19764   19767   19767   19775   19778   19767   19775   19777
   19767   19775   19776   19767   19769   19770   19768   19767   19769
   19768   19767   19775   19769   19770   19771   19769   19770   19772
   19769   19767   19775   19770   19772   19784   19770   19772   19774
   19770   19772   19773   19771   19770   19772   19772   19784   19787
   19772   19784   19786   19772   19784   19785   19773   19772   19784
   19773   19772   19774   19774   19772   19784   19775   19778   19779
   19776   19775   19778   19776   19775   19777   19777   19775   19778
   19778   19779   19780   19778   19779   19781   19779   19781   19821
   19779   19781   19783   19779   19781   19782   19780   19779   19781
   19781   19821   19824   19781   19821   19823   19781   19821   19822
   19782   19781   19821   19782   19781   19783   19783   19781   19821
   19784   19787   19790   19784   19787   19789   19784   19787   19788
   19785   19784   19787   19785   19784   19786   19786   19784   19787
   19787   19790   19793   19787   19790   19792   19787   19790   19791
   19788   19787   19790   19788   19787   19789   19789   19787   19790
   19790   19793   19796   19790   19793   19795   19790   19793   19794
   19791   19790   19793   19791   19790   19792   19792   19790   19793
   19793   19796   19799   19793   19796   19798   19793   19796   19797
   19794   19793   19796   19794   19793   19795   19795   19793   19796
   19796   19799   19802   19796   19799   19801   19796   19799   19800
   19797   19796   19799   19797   19796   19798   19798   19796   19799
   19799   19802   19805   19799   19802   19804   19799   19802   19803
   19800   19799   19802   19800   19799   19801   19801   19799   19802
   19802   19805   19808   19802   19805   19807   19802   19805   19806
   19803   19802   19805   19803   19802   19804   19804   19802   19805
   19805   19808   19811   19805   19808   19810   19805   19808   19809
   19806   19805   19808   19806   19805   19807   19807   19805   19808
   19808   19811   19814   19808   19811   19813   19808   19811   19812
   19809   19808   19811   19809   19808   19810   19810   19808   19811
   19811   19814   19817   19811   19814   19816   19811   19814   19815
   19812   19811   19814   19812   19811   19813   19813   19811   19814
   19814   19817   19820   19814   19817   19819   19814   19817   19818
   19815   19814   19817   19815   19814   19816   19816   19814   19817
   19818   19817   19820   19818   19817   19819   19819   19817   19820
   19821   19824   19827   19821   19824   19826   19821   19824   19825
   19822   19821   19824   19822   19821   19823   19823   19821   19824
   19824   19827   19830   19824   19827   19829   19824   19827   19828
   19825   19824   19827   19825   19824   19826   19826   19824   19827
   19827   19830   19833   19827   19830   19832   19827   19830   19831
   19828   19827   19830   19828   19827   19829   19829   19827   19830
   19830   19833   19836   19830   19833   19835   19830   19833   19834
   19831   19830   19833   19831   19830   19832   19832   19830   19833
   19833   19836   19839   19833   19836   19838   19833   19836   19837
   19834   19833   19836   19834   19833   19835   19835   19833   19836
   19836   19839   19842   19836   19839   19841   19836   19839   19840
   19837   19836   19839   19837   19836   19838   19838   19836   19839
   19839   19842   19845   19839   19842   19844   19839   19842   19843
   19840   19839   19842   19840   19839   19841   19841   19839   19842
   19842   19845   19848   19842   19845   19847   19842   19845   19846
   19843   19842   19845   19843   19842   19844   19844   19842   19845
   19845   19848   19851   19845   19848   19850   19845   19848   19849
   19846   19845   19848   19846   19845   19847   19847   19845   19848
   19848   19851   19854   19848   19851   19853   19848   19851   19852
   19849   19848   19851   19849   19848   19850   19850   19848   19851
   19851   19854   19857   19851   19854   19856   19851   19854   19855
   19852   19851   19854   19852   19851   19853   19853   19851   19854
   19855   19854   19857   19855   19854   19856   19856   19854   19857
   19858   19871   19874   19858   19871   19873   19858   19871   19872
   19858   19867   19870   19858   19867   19869   19858   19867   19868
   19858   19863   19866   19858   19863   19865   19858   19863   19864
   19858   19859   19862   19858   19859   19861   19858   19859   19860
   19859   19858   19871   19859   19858   19867   19859   19858   19863
   19860   19859   19862   19860   19859   19861   19861   19859   19862
   19863   19858   19871   19863   19858   19867   19864   19863   19866
   19864   19863   19865   19865   19863   19866   19867   19858   19871
   19868   19867   19870   19868   19867   19869   19869   19867   19870
   19871   19874   19881   19871   19874   19876   19871   19874   19875
   19872   19871   19874   19872   19871   19873   19873   19871   19874
   19874   19881   19877   19875   19874   19881   19875   19874   19876
   19876   19874   19881   19877   19880   19882   19878   19877   19879
   19878   19877   19880   19878   19877   19881   19879   19877   19880
   19879   19877   19881   19880   19877   19881   19880   19882   19883
   19880   19882   19884   19880   19882   19885   19882   19885   19887
   19882   19885   19893   19882   19885   19886   19883   19882   19885
   19883   19882   19884   19884   19882   19885   19885   19893   19896
   19885   19893   19895   19885   19893   19894   19885   19887   19888
   19886   19885   19887   19886   19885   19893   19887   19888   19889
   19887   19888   19890   19887   19885   19893   19888   19890   19902
   19888   19890   19892   19888   19890   19891   19889   19888   19890
   19890   19902   19905   19890   19902   19904   19890   19902   19903
   19891   19890   19902   19891   19890   19892   19892   19890   19902
   19893   19896   19897   19894   19893   19896   19894   19893   19895
   19895   19893   19896   19896   19897   19898   19896   19897   19899
   19897   19899   19939   19897   19899   19901   19897   19899   19900
   19898   19897   19899   19899   19939   19942   19899   19939   19941
   19899   19939   19940   19900   19899   19939   19900   19899   19901
   19901   19899   19939   19902   19905   19908   19902   19905   19907
   19902   19905   19906   19903   19902   19905   19903   19902   19904
   19904   19902   19905   19905   19908   19911   19905   19908   19910
   19905   19908   19909   19906   19905   19908   19906   19905   19907
   19907   19905   19908   19908   19911   19914   19908   19911   19913
   19908   19911   19912   19909   19908   19911   19909   19908   19910
   19910   19908   19911   19911   19914   19917   19911   19914   19916
   19911   19914   19915   19912   19911   19914   19912   19911   19913
   19913   19911   19914   19914   19917   19920   19914   19917   19919
   19914   19917   19918   19915   19914   19917   19915   19914   19916
   19916   19914   19917   19917   19920   19923   19917   19920   19922
   19917   19920   19921   19918   19917   19920   19918   19917   19919
   19919   19917   19920   19920   19923   19926   19920   19923   19925
   19920   19923   19924   19921   19920   19923   19921   19920   19922
   19922   19920   19923   19923   19926   19929   19923   19926   19928
   19923   19926   19927   19924   19923   19926   19924   19923   19925
   19925   19923   19926   19926   19929   19932   19926   19929   19931
   19926   19929   19930   19927   19926   19929   19927   19926   19928
   19928   19926   19929   19929   19932   19935   19929   19932   19934
   19929   19932   19933   19930   19929   19932   19930   19929   19931
   19931   19929   19932   19932   19935   19938   19932   19935   19937
   19932   19935   19936   19933   19932   19935   19933   19932   19934
   19934   19932   19935   19936   19935   19938   19936   19935   19937
   19937   19935   19938   19939   19942   19945   19939   19942   19944
   19939   19942   19943   19940   19939   19942   19940   19939   19941
   19941   19939   19942   19942   19945   19948   19942   19945   19947
   19942   19945   19946   19943   19942   19945   19943   19942   19944
   19944   19942   19945   19945   19948   19951   19945   19948   19950
   19945   19948   19949   19946   19945   19948   19946   19945   19947
   19947   19945   19948   19948   19951   19954   19948   19951   19953
   19948   19951   19952   19949   19948   19951   19949   19948   19950
   19950   19948   19951   19951   19954   19957   19951   19954   19956
   19951   19954   19955   19952   19951   19954   19952   19951   19953
   19953   19951   19954   19954   19957   19960   19954   19957   19959
   19954   19957   19958   19955   19954   19957   19955   19954   19956
   19956   19954   19957   19957   19960   19963   19957   19960   19962
   19957   19960   19961   19958   19957   19960   19958   19957   19959
   19959   19957   19960   19960   19963   19966   19960   19963   19965
   19960   19963   19964   19961   19960   19963   19961   19960   19962
   19962   19960   19963   19963   19966   19969   19963   19966   19968
   19963   19966   19967   19964   19963   19966   19964   19963   19965
   19965   19963   19966   19966   19969   19972   19966   19969   19971
   19966   19969   19970   19967   19966   19969   19967   19966   19968
   19968   19966   19969   19969   19972   19975   19969   19972   19974
   19969   19972   19973   19970   19969   19972   19970   19969   19971
   19971   19969   19972   19973   19972   19975   19973   19972   19974
   19974   19972   19975   19976   19989   19992   19976   19989   19991
   19976   19989   19990   19976   19985   19988   19976   19985   19987
   19976   19985   19986   19976   19981   19984   19976   19981   19983
   19976   19981   19982   19976   19977   19980   19976   19977   19979
   19976   19977   19978   19977   19976   19989   19977   19976   19985
   19977   19976   19981   19978   19977   19980   19978   19977   19979
   19979   19977   19980   19981   19976   19989   19981   19976   19985
   19982   19981   19984   19982   19981   19983   19983   19981   19984
   19985   19976   19989   19986   19985   19988   19986   19985   19987
   19987   19985   19988   19989   19992   19999   19989   19992   19994
   19989   19992   19993   19990   19989   19992   19990   19989   19991
   19991   19989   19992   19992   19999   19995   19993   19992   19999
   19993   19992   19994   19994   19992   19999   19995   19998   20000
   19996   19995   19997   19996   19995   19998   19996   19995   19999
   19997   19995   19998   19997   19995   19999   19998   19995   19999
   19998   20000   20001   19998   20000   20002   19998   20000   20003
   20000   20003   20005   20000   20003   20011   20000   20003   20004
   20001   20000   20003   20001   20000   20002   20002   20000   20003
   20003   20011   20014   20003   20011   20013   20003   20011   20012
   20003   20005   20006   20004   20003   20005   20004   20003   20011
   20005   20006   20007   20005   20006   20008   20005   20003   20011
   20006   20008   20020   20006   20008   20010   20006   20008   20009
   20007   20006   20008   20008   20020   20023   20008   20020   20022
   20008   20020   20021   20009   20008   20020   20009   20008   20010
   20010   20008   20020   20011   20014   20015   20012   20011   20014
   20012   20011   20013   20013   20011   20014   20014   20015   20016
   20014   20015   20017   20015   20017   20057   20015   20017   20019
   20015   20017   20018   20016   20015   20017   20017   20057   20060
   20017   20057   20059   20017   20057   20058   20018   20017   20057
   20018   20017   20019   20019   20017   20057   20020   20023   20026
   20020   20023   20025   20020   20023   20024   20021   20020   20023
   20021   20020   20022   20022   20020   20023   20023   20026   20029
   20023   20026   20028   20023   20026   20027   20024   20023   20026
   20024   20023   20025   20025   20023   20026   20026   20029   20032
   20026   20029   20031   20026   20029   20030   20027   20026   20029
   20027   20026   20028   20028   20026   20029   20029   20032   20035
   20029   20032   20034   20029   20032   20033   20030   20029   20032
   20030   20029   20031   20031   20029   20032   20032   20035   20038
   20032   20035   20037   20032   20035   20036   20033   20032   20035
   20033   20032   20034   20034   20032   20035   20035   20038   20041
   20035   20038   20040   20035   20038   20039   20036   20035   20038
   20036   20035   20037   20037   20035   20038   20038   20041   20044
   20038   20041   20043   20038   20041   20042   20039   20038   20041
   20039   20038   20040   20040   20038   20041   20041   20044   20047
   20041   20044   20046   20041   20044   20045   20042   20041   20044
   20042   20041   20043   20043   20041   20044   20044   20047   20050
   20044   20047   20049   20044   20047   20048   20045   20044   20047
   20045   20044   20046   20046   20044   20047   20047   20050   20053
   20047   20050   20052   20047   20050   20051   20048   20047   20050
   20048   20047   20049   20049   20047   20050   20050   20053   20056
   20050   20053   20055   20050   20053   20054   20051   20050   20053
   20051   20050   20052   20052   20050   20053   20054   20053   20056
   20054   20053   20055   20055   20053   20056   20057   20060   20063
   20057   20060   20062   20057   20060   20061   20058   20057   20060
   20058   20057   20059   20059   20057   20060   20060   20063   20066
   20060   20063   20065   20060   20063   20064   20061   20060   20063
   20061   20060   20062   20062   20060   20063   20063   20066   20069
   20063   20066   20068   20063   20066   20067   20064   20063   20066
   20064   20063   20065   20065   20063   20066   20066   20069   20072
   20066   20069   20071   20066   20069   20070   20067   20066   20069
   20067   20066   20068   20068   20066   20069   20069   20072   20075
   20069   20072   20074   20069   20072   20073   20070   20069   20072
   20070   20069   20071   20071   20069   20072   20072   20075   20078
   20072   20075   20077   20072   20075   20076   20073   20072   20075
   20073   20072   20074   20074   20072   20075   20075   20078   20081
   20075   20078   20080   20075   20078   20079   20076   20075   20078
   20076   20075   20077   20077   20075   20078   20078   20081   20084
   20078   20081   20083   20078   20081   20082   20079   20078   20081
   20079   20078   20080   20080   20078   20081   20081   20084   20087
   20081   20084   20086   20081   20084   20085   20082   20081   20084
   20082   20081   20083   20083   20081   20084   20084   20087   20090
   20084   20087   20089   20084   20087   20088   20085   20084   20087
   20085   20084   20086   20086   20084   20087   20087   20090   20093
   20087   20090   20092   20087   20090   20091   20088   20087   20090
   20088   20087   20089   20089   20087   20090   20091   20090   20093
   20091   20090   20092   20092   20090   20093   20094   20107   20110
   20094   20107   20109   20094   20107   20108   20094   20103   20106
   20094   20103   20105   20094   20103   20104   20094   20099   20102
   20094   20099   20101   20094   20099   20100   20094   20095   20098
   20094   20095   20097   20094   20095   20096   20095   20094   20107
   20095   20094   20103   20095   20094   20099   20096   20095   20098
   20096   20095   20097   20097   20095   20098   20099   20094   20107
   20099   20094   20103   20100   20099   20102   20100   20099   20101
   20101   20099   20102   20103   20094   20107   20104   20103   20106
   20104   20103   20105   20105   20103   20106   20107   20110   20117
   20107   20110   20112   20107   20110   20111   20108   20107   20110
   20108   20107   20109   20109   20107   20110   20110   20117   20113
   20111   20110   20117   20111   20110   20112   20112   20110   20117
   20113   20116   20118   20114   20113   20115   20114   20113   20116
   20114   20113   20117   20115   20113   20116   20115   20113   20117
   20116   20113   20117   20116   20118   20119   20116   20118   20120
   20116   20118   20121   20118   20121   20123   20118   20121   20129
   20118   20121   20122   20119   20118   20121   20119   20118   20120
   20120   20118   20121   20121   20129   20132   20121   20129   20131
   20121   20129   20130   20121   20123   20124   20122   20121   20123
   20122   20121   20129   20123   20124   20125   20123   20124   20126
   20123   20121   20129   20124   20126   20138   20124   20126   20128
   20124   20126   20127   20125   20124   20126   20126   20138   20141
   20126   20138   20140   20126   20138   20139   20127   20126   20138
   20127   20126   20128   20128   20126   20138   20129   20132   20133
   20130   20129   20132   20130   20129   20131   20131   20129   20132
   20132   20133   20134   20132   20133   20135   20133   20135   20175
   20133   20135   20137   20133   20135   20136   20134   20133   20135
   20135   20175   20178   20135   20175   20177   20135   20175   20176
   20136   20135   20175   20136   20135   20137   20137   20135   20175
   20138   20141   20144   20138   20141   20143   20138   20141   20142
   20139   20138   20141   20139   20138   20140   20140   20138   20141
   20141   20144   20147   20141   20144   20146   20141   20144   20145
   20142   20141   20144   20142   20141   20143   20143   20141   20144
   20144   20147   20150   20144   20147   20149   20144   20147   20148
   20145   20144   20147   20145   20144   20146   20146   20144   20147
   20147   20150   20153   20147   20150   20152   20147   20150   20151
   20148   20147   20150   20148   20147   20149   20149   20147   20150
   20150   20153   20156   20150   20153   20155   20150   20153   20154
   20151   20150   20153   20151   20150   20152   20152   20150   20153
   20153   20156   20159   20153   20156   20158   20153   20156   20157
   20154   20153   20156   20154   20153   20155   20155   20153   20156
   20156   20159   20162   20156   20159   20161   20156   20159   20160
   20157   20156   20159   20157   20156   20158   20158   20156   20159
   20159   20162   20165   20159   20162   20164   20159   20162   20163
   20160   20159   20162   20160   20159   20161   20161   20159   20162
   20162   20165   20168   20162   20165   20167   20162   20165   20166
   20163   20162   20165   20163   20162   20164   20164   20162   20165
   20165   20168   20171   20165   20168   20170   20165   20168   20169
   20166   20165   20168   20166   20165   20167   20167   20165   20168
   20168   20171   20174   20168   20171   20173   20168   20171   20172
   20169   20168   20171   20169   20168   20170   20170   20168   20171
   20172   20171   20174   20172   20171   20173   20173   20171   20174
   20175   20178   20181   20175   20178   20180   20175   20178   20179
   20176   20175   20178   20176   20175   20177   20177   20175   20178
   20178   20181   20184   20178   20181   20183   20178   20181   20182
   20179   20178   20181   20179   20178   20180   20180   20178   20181
   20181   20184   20187   20181   20184   20186   20181   20184   20185
   20182   20181   20184   20182   20181   20183   20183   20181   20184
   20184   20187   20190   20184   20187   20189   20184   20187   20188
   20185   20184   20187   20185   20184   20186   20186   20184   20187
   20187   20190   20193   20187   20190   20192   20187   20190   20191
   20188   20187   20190   20188   20187   20189   20189   20187   20190
   20190   20193   20196   20190   20193   20195   20190   20193   20194
   20191   20190   20193   20191   20190   20192   20192   20190   20193
   20193   20196   20199   20193   20196   20198   20193   20196   20197
   20194   20193   20196   20194   20193   20195   20195   20193   20196
   20196   20199   20202   20196   20199   20201   20196   20199   20200
   20197   20196   20199   20197   20196   20198   20198   20196   20199
   20199   20202   20205   20199   20202   20204   20199   20202   20203
   20200   20199   20202   20200   20199   20201   20201   20199   20202
   20202   20205   20208   20202   20205   20207   20202   20205   20206
   20203   20202   20205   20203   20202   20204   20204   20202   20205
   20205   20208   20211   20205   20208   20210   20205   20208   20209
   20206   20205   20208   20206   20205   20207   20207   20205   20208
   20209   20208   20211   20209   20208   20210   20210   20208   20211
   20212   20225   20228   20212   20225   20227   20212   20225   20226
   20212   20221   20224   20212   20221   20223   20212   20221   20222
   20212   20217   20220   20212   20217   20219   20212   20217   20218
   20212   20213   20216   20212   20213   20215   20212   20213   20214
   20213   20212   20225   20213   20212   20221   20213   20212   20217
   20214   20213   20216   20214   20213   20215   20215   20213   20216
   20217   20212   20225   20217   20212   20221   20218   20217   20220
   20218   20217   20219   20219   20217   20220   20221   20212   20225
   20222   20221   20224   20222   20221   20223   20223   20221   20224
   20225   20228   20235   20225   20228   20230   20225   20228   20229
   20226   20225   20228   20226   20225   20227   20227   20225   20228
   20228   20235   20231   20229   20228   20235   20229   20228   20230
   20230   20228   20235   20231   20234   20236   20232   20231   20233
   20232   20231   20234   20232   20231   20235   20233   20231   20234
   20233   20231   20235   20234   20231   20235   20234   20236   20237
   20234   20236   20238   20234   20236   20239   20236   20239   20241
   20236   20239   20247   20236   20239   20240   20237   20236   20239
   20237   20236   20238   20238   20236   20239   20239   20247   20250
   20239   20247   20249   20239   20247   20248   20239   20241   20242
   20240   20239   20241   20240   20239   20247   20241   20242   20243
   20241   20242   20244   20241   20239   20247   20242   20244   20256
   20242   20244   20246   20242   20244   20245   20243   20242   20244
   20244   20256   20259   20244   20256   20258   20244   20256   20257
   20245   20244   20256   20245   20244   20246   20246   20244   20256
   20247   20250   20251   20248   20247   20250   20248   20247   20249
   20249   20247   20250   20250   20251   20252   20250   20251   20253
   20251   20253   20293   20251   20253   20255   20251   20253   20254
   20252   20251   20253   20253   20293   20296   20253   20293   20295
   20253   20293   20294   20254   20253   20293   20254   20253   20255
   20255   20253   20293   20256   20259   20262   20256   20259   20261
   20256   20259   20260   20257   20256   20259   20257   20256   20258
   20258   20256   20259   20259   20262   20265   20259   20262   20264
   20259   20262   20263   20260   20259   20262   20260   20259   20261
   20261   20259   20262   20262   20265   20268   20262   20265   20267
   20262   20265   20266   20263   20262   20265   20263   20262   20264
   20264   20262   20265   20265   20268   20271   20265   20268   20270
   20265   20268   20269   20266   20265   20268   20266   20265   20267
   20267   20265   20268   20268   20271   20274   20268   20271   20273
   20268   20271   20272   20269   20268   20271   20269   20268   20270
   20270   20268   20271   20271   20274   20277   20271   20274   20276
   20271   20274   20275   20272   20271   20274   20272   20271   20273
   20273   20271   20274   20274   20277   20280   20274   20277   20279
   20274   20277   20278   20275   20274   20277   20275   20274   20276
   20276   20274   20277   20277   20280   20283   20277   20280   20282
   20277   20280   20281   20278   20277   20280   20278   20277   20279
   20279   20277   20280   20280   20283   20286   20280   20283   20285
   20280   20283   20284   20281   20280   20283   20281   20280   20282
   20282   20280   20283   20283   20286   20289   20283   20286   20288
   20283   20286   20287   20284   20283   20286   20284   20283   20285
   20285   20283   20286   20286   20289   20292   20286   20289   20291
   20286   20289   20290   20287   20286   20289   20287   20286   20288
   20288   20286   20289   20290   20289   20292   20290   20289   20291
   20291   20289   20292   20293   20296   20299   20293   20296   20298
   20293   20296   20297   20294   20293   20296   20294   20293   20295
   20295   20293   20296   20296   20299   20302   20296   20299   20301
   20296   20299   20300   20297   20296   20299   20297   20296   20298
   20298   20296   20299   20299   20302   20305   20299   20302   20304
   20299   20302   20303   20300   20299   20302   20300   20299   20301
   20301   20299   20302   20302   20305   20308   20302   20305   20307
   20302   20305   20306   20303   20302   20305   20303   20302   20304
   20304   20302   20305   20305   20308   20311   20305   20308   20310
   20305   20308   20309   20306   20305   20308   20306   20305   20307
   20307   20305   20308   20308   20311   20314   20308   20311   20313
   20308   20311   20312   20309   20308   20311   20309   20308   20310
   20310   20308   20311   20311   20314   20317   20311   20314   20316
   20311   20314   20315   20312   20311   20314   20312   20311   20313
   20313   20311   20314   20314   20317   20320   20314   20317   20319
   20314   20317   20318   20315   20314   20317   20315   20314   20316
   20316   20314   20317   20317   20320   20323   20317   20320   20322
   20317   20320   20321   20318   20317   20320   20318   20317   20319
   20319   20317   20320   20320   20323   20326   20320   20323   20325
   20320   20323   20324   20321   20320   20323   20321   20320   20322
   20322   20320   20323   20323   20326   20329   20323   20326   20328
   20323   20326   20327   20324   20323   20326   20324   20323   20325
   20325   20323   20326   20327   20326   20329   20327   20326   20328
   20328   20326   20329   20330   20343   20346   20330   20343   20345
   20330   20343   20344   20330   20339   20342   20330   20339   20341
   20330   20339   20340   20330   20335   20338   20330   20335   20337
   20330   20335   20336   20330   20331   20334   20330   20331   20333
   20330   20331   20332   20331   20330   20343   20331   20330   20339
   20331   20330   20335   20332   20331   20334   20332   20331   20333
   20333   20331   20334   20335   20330   20343   20335   20330   20339
   20336   20335   20338   20336   20335   20337   20337   20335   20338
   20339   20330   20343   20340   20339   20342   20340   20339   20341
   20341   20339   20342   20343   20346   20353   20343   20346   20348
   20343   20346   20347   20344   20343   20346   20344   20343   20345
   20345   20343   20346   20346   20353   20349   20347   20346   20353
   20347   20346   20348   20348   20346   20353   20349   20352   20354
   20350   20349   20351   20350   20349   20352   20350   20349   20353
   20351   20349   20352   20351   20349   20353   20352   20349   20353
   20352   20354   20355   20352   20354   20356   20352   20354   20357
   20354   20357   20359   20354   20357   20365   20354   20357   20358
   20355   20354   20357   20355   20354   20356   20356   20354   20357
   20357   20365   20368   20357   20365   20367   20357   20365   20366
   20357   20359   20360   20358   20357   20359   20358   20357   20365
   20359   20360   20361   20359   20360   20362   20359   20357   20365
   20360   20362   20374   20360   20362   20364   20360   20362   20363
   20361   20360   20362   20362   20374   20377   20362   20374   20376
   20362   20374   20375   20363   20362   20374   20363   20362   20364
   20364   20362   20374   20365   20368   20369   20366   20365   20368
   20366   20365   20367   20367   20365   20368   20368   20369   20370
   20368   20369   20371   20369   20371   20411   20369   20371   20373
   20369   20371   20372   20370   20369   20371   20371   20411   20414
   20371   20411   20413   20371   20411   20412   20372   20371   20411
   20372   20371   20373   20373   20371   20411   20374   20377   20380
   20374   20377   20379   20374   20377   20378   20375   20374   20377
   20375   20374   20376   20376   20374   20377   20377   20380   20383
   20377   20380   20382   20377   20380   20381   20378   20377   20380
   20378   20377   20379   20379   20377   20380   20380   20383   20386
   20380   20383   20385   20380   20383   20384   20381   20380   20383
   20381   20380   20382   20382   20380   20383   20383   20386   20389
   20383   20386   20388   20383   20386   20387   20384   20383   20386
   20384   20383   20385   20385   20383   20386   20386   20389   20392
   20386   20389   20391   20386   20389   20390   20387   20386   20389
   20387   20386   20388   20388   20386   20389   20389   20392   20395
   20389   20392   20394   20389   20392   20393   20390   20389   20392
   20390   20389   20391   20391   20389   20392   20392   20395   20398
   20392   20395   20397   20392   20395   20396   20393   20392   20395
   20393   20392   20394   20394   20392   20395   20395   20398   20401
   20395   20398   20400   20395   20398   20399   20396   20395   20398
   20396   20395   20397   20397   20395   20398   20398   20401   20404
   20398   20401   20403   20398   20401   20402   20399   20398   20401
   20399   20398   20400   20400   20398   20401   20401   20404   20407
   20401   20404   20406   20401   20404   20405   20402   20401   20404
   20402   20401   20403   20403   20401   20404   20404   20407   20410
   20404   20407   20409   20404   20407   20408   20405   20404   20407
   20405   20404   20406   20406   20404   20407   20408   20407   20410
   20408   20407   20409   20409   20407   20410   20411   20414   20417
   20411   20414   20416   20411   20414   20415   20412   20411   20414
   20412   20411   20413   20413   20411   20414   20414   20417   20420
   20414   20417   20419   20414   20417   20418   20415   20414   20417
   20415   20414   20416   20416   20414   20417   20417   20420   20423
   20417   20420   20422   20417   20420   20421   20418   20417   20420
   20418   20417   20419   20419   20417   20420   20420   20423   20426
   20420   20423   20425   20420   20423   20424   20421   20420   20423
   20421   20420   20422   20422   20420   20423   20423   20426   20429
   20423   20426   20428   20423   20426   20427   20424   20423   20426
   20424   20423   20425   20425   20423   20426   20426   20429   20432
   20426   20429   20431   20426   20429   20430   20427   20426   20429
   20427   20426   20428   20428   20426   20429   20429   20432   20435
   20429   20432   20434   20429   20432   20433   20430   20429   20432
   20430   20429   20431   20431   20429   20432   20432   20435   20438
   20432   20435   20437   20432   20435   20436   20433   20432   20435
   20433   20432   20434   20434   20432   20435   20435   20438   20441
   20435   20438   20440   20435   20438   20439   20436   20435   20438
   20436   20435   20437   20437   20435   20438   20438   20441   20444
   20438   20441   20443   20438   20441   20442   20439   20438   20441
   20439   20438   20440   20440   20438   20441   20441   20444   20447
   20441   20444   20446   20441   20444   20445   20442   20441   20444
   20442   20441   20443   20443   20441   20444   20445   20444   20447
   20445   20444   20446   20446   20444   20447   20448   20461   20464
   20448   20461   20463   20448   20461   20462   20448   20457   20460
   20448   20457   20459   20448   20457   20458   20448   20453   20456
   20448   20453   20455   20448   20453   20454   20448   20449   20452
   20448   20449   20451   20448   20449   20450   20449   20448   20461
   20449   20448   20457   20449   20448   20453   20450   20449   20452
   20450   20449   20451   20451   20449   20452   20453   20448   20461
   20453   20448   20457   20454   20453   20456   20454   20453   20455
   20455   20453   20456   20457   20448   20461   20458   20457   20460
   20458   20457   20459   20459   20457   20460   20461   20464   20471
   20461   20464   20466   20461   20464   20465   20462   20461   20464
   20462   20461   20463   20463   20461   20464   20464   20471   20467
   20465   20464   20471   20465   20464   20466   20466   20464   20471
   20467   20470   20472   20468   20467   20469   20468   20467   20470
   20468   20467   20471   20469   20467   20470   20469   20467   20471
   20470   20467   20471   20470   20472   20473   20470   20472   20474
   20470   20472   20475   20472   20475   20477   20472   20475   20483
   20472   20475   20476   20473   20472   20475   20473   20472   20474
   20474   20472   20475   20475   20483   20486   20475   20483   20485
   20475   20483   20484   20475   20477   20478   20476   20475   20477
   20476   20475   20483   20477   20478   20479   20477   20478   20480
   20477   20475   20483   20478   20480   20492   20478   20480   20482
   20478   20480   20481   20479   20478   20480   20480   20492   20495
   20480   20492   20494   20480   20492   20493   20481   20480   20492
   20481   20480   20482   20482   20480   20492   20483   20486   20487
   20484   20483   20486   20484   20483   20485   20485   20483   20486
   20486   20487   20488   20486   20487   20489   20487   20489   20529
   20487   20489   20491   20487   20489   20490   20488   20487   20489
   20489   20529   20532   20489   20529   20531   20489   20529   20530
   20490   20489   20529   20490   20489   20491   20491   20489   20529
   20492   20495   20498   20492   20495   20497   20492   20495   20496
   20493   20492   20495   20493   20492   20494   20494   20492   20495
   20495   20498   20501   20495   20498   20500   20495   20498   20499
   20496   20495   20498   20496   20495   20497   20497   20495   20498
   20498   20501   20504   20498   20501   20503   20498   20501   20502
   20499   20498   20501   20499   20498   20500   20500   20498   20501
   20501   20504   20507   20501   20504   20506   20501   20504   20505
   20502   20501   20504   20502   20501   20503   20503   20501   20504
   20504   20507   20510   20504   20507   20509   20504   20507   20508
   20505   20504   20507   20505   20504   20506   20506   20504   20507
   20507   20510   20513   20507   20510   20512   20507   20510   20511
   20508   20507   20510   20508   20507   20509   20509   20507   20510
   20510   20513   20516   20510   20513   20515   20510   20513   20514
   20511   20510   20513   20511   20510   20512   20512   20510   20513
   20513   20516   20519   20513   20516   20518   20513   20516   20517
   20514   20513   20516   20514   20513   20515   20515   20513   20516
   20516   20519   20522   20516   20519   20521   20516   20519   20520
   20517   20516   20519   20517   20516   20518   20518   20516   20519
   20519   20522   20525   20519   20522   20524   20519   20522   20523
   20520   20519   20522   20520   20519   20521   20521   20519   20522
   20522   20525   20528   20522   20525   20527   20522   20525   20526
   20523   20522   20525   20523   20522   20524   20524   20522   20525
   20526   20525   20528   20526   20525   20527   20527   20525   20528
   20529   20532   20535   20529   20532   20534   20529   20532   20533
   20530   20529   20532   20530   20529   20531   20531   20529   20532
   20532   20535   20538   20532   20535   20537   20532   20535   20536
   20533   20532   20535   20533   20532   20534   20534   20532   20535
   20535   20538   20541   20535   20538   20540   20535   20538   20539
   20536   20535   20538   20536   20535   20537   20537   20535   20538
   20538   20541   20544   20538   20541   20543   20538   20541   20542
   20539   20538   20541   20539   20538   20540   20540   20538   20541
   20541   20544   20547   20541   20544   20546   20541   20544   20545
   20542   20541   20544   20542   20541   20543   20543   20541   20544
   20544   20547   20550   20544   20547   20549   20544   20547   20548
   20545   20544   20547   20545   20544   20546   20546   20544   20547
   20547   20550   20553   20547   20550   20552   20547   20550   20551
   20548   20547   20550   20548   20547   20549   20549   20547   20550
   20550   20553   20556   20550   20553   20555   20550   20553   20554
   20551   20550   20553   20551   20550   20552   20552   20550   20553
   20553   20556   20559   20553   20556   20558   20553   20556   20557
   20554   20553   20556   20554   20553   20555   20555   20553   20556
   20556   20559   20562   20556   20559   20561   20556   20559   20560
   20557   20556   20559   20557   20556   20558   20558   20556   20559
   20559   20562   20565   20559   20562   20564   20559   20562   20563
   20560   20559   20562   20560   20559   20561   20561   20559   20562
   20563   20562   20565   20563   20562   20564   20564   20562   20565
   20566   20579   20582   20566   20579   20581   20566   20579   20580
   20566   20575   20578   20566   20575   20577   20566   20575   20576
   20566   20571   20574   20566   20571   20573   20566   20571   20572
   20566   20567   20570   20566   20567   20569   20566   20567   20568
   20567   20566   20579   20567   20566   20575   20567   20566   20571
   20568   20567   20570   20568   20567   20569   20569   20567   20570
   20571   20566   20579   20571   20566   20575   20572   20571   20574
   20572   20571   20573   20573   20571   20574   20575   20566   20579
   20576   20575   20578   20576   20575   20577   20577   20575   20578
   20579   20582   20589   20579   20582   20584   20579   20582   20583
   20580   20579   20582   20580   20579   20581   20581   20579   20582
   20582   20589   20585   20583   20582   20589   20583   20582   20584
   20584   20582   20589   20585   20588   20590   20586   20585   20587
   20586   20585   20588   20586   20585   20589   20587   20585   20588
   20587   20585   20589   20588   20585   20589   20588   20590   20591
   20588   20590   20592   20588   20590   20593   20590   20593   20595
   20590   20593   20601   20590   20593   20594   20591   20590   20593
   20591   20590   20592   20592   20590   20593   20593   20601   20604
   20593   20601   20603   20593   20601   20602   20593   20595   20596
   20594   20593   20595   20594   20593   20601   20595   20596   20597
   20595   20596   20598   20595   20593   20601   20596   20598   20610
   20596   20598   20600   20596   20598   20599   20597   20596   20598
   20598   20610   20613   20598   20610   20612   20598   20610   20611
   20599   20598   20610   20599   20598   20600   20600   20598   20610
   20601   20604   20605   20602   20601   20604   20602   20601   20603
   20603   20601   20604   20604   20605   20606   20604   20605   20607
   20605   20607   20647   20605   20607   20609   20605   20607   20608
   20606   20605   20607   20607   20647   20650   20607   20647   20649
   20607   20647   20648   20608   20607   20647   20608   20607   20609
   20609   20607   20647   20610   20613   20616   20610   20613   20615
   20610   20613   20614   20611   20610   20613   20611   20610   20612
   20612   20610   20613   20613   20616   20619   20613   20616   20618
   20613   20616   20617   20614   20613   20616   20614   20613   20615
   20615   20613   20616   20616   20619   20622   20616   20619   20621
   20616   20619   20620   20617   20616   20619   20617   20616   20618
   20618   20616   20619   20619   20622   20625   20619   20622   20624
   20619   20622   20623   20620   20619   20622   20620   20619   20621
   20621   20619   20622   20622   20625   20628   20622   20625   20627
   20622   20625   20626   20623   20622   20625   20623   20622   20624
   20624   20622   20625   20625   20628   20631   20625   20628   20630
   20625   20628   20629   20626   20625   20628   20626   20625   20627
   20627   20625   20628   20628   20631   20634   20628   20631   20633
   20628   20631   20632   20629   20628   20631   20629   20628   20630
   20630   20628   20631   20631   20634   20637   20631   20634   20636
   20631   20634   20635   20632   20631   20634   20632   20631   20633
   20633   20631   20634   20634   20637   20640   20634   20637   20639
   20634   20637   20638   20635   20634   20637   20635   20634   20636
   20636   20634   20637   20637   20640   20643   20637   20640   20642
   20637   20640   20641   20638   20637   20640   20638   20637   20639
   20639   20637   20640   20640   20643   20646   20640   20643   20645
   20640   20643   20644   20641   20640   20643   20641   20640   20642
   20642   20640   20643   20644   20643   20646   20644   20643   20645
   20645   20643   20646   20647   20650   20653   20647   20650   20652
   20647   20650   20651   20648   20647   20650   20648   20647   20649
   20649   20647   20650   20650   20653   20656   20650   20653   20655
   20650   20653   20654   20651   20650   20653   20651   20650   20652
   20652   20650   20653   20653   20656   20659   20653   20656   20658
   20653   20656   20657   20654   20653   20656   20654   20653   20655
   20655   20653   20656   20656   20659   20662   20656   20659   20661
   20656   20659   20660   20657   20656   20659   20657   20656   20658
   20658   20656   20659   20659   20662   20665   20659   20662   20664
   20659   20662   20663   20660   20659   20662   20660   20659   20661
   20661   20659   20662   20662   20665   20668   20662   20665   20667
   20662   20665   20666   20663   20662   20665   20663   20662   20664
   20664   20662   20665   20665   20668   20671   20665   20668   20670
   20665   20668   20669   20666   20665   20668   20666   20665   20667
   20667   20665   20668   20668   20671   20674   20668   20671   20673
   20668   20671   20672   20669   20668   20671   20669   20668   20670
   20670   20668   20671   20671   20674   20677   20671   20674   20676
   20671   20674   20675   20672   20671   20674   20672   20671   20673
   20673   20671   20674   20674   20677   20680   20674   20677   20679
   20674   20677   20678   20675   20674   20677   20675   20674   20676
   20676   20674   20677   20677   20680   20683   20677   20680   20682
   20677   20680   20681   20678   20677   20680   20678   20677   20679
   20679   20677   20680   20681   20680   20683   20681   20680   20682
   20682   20680   20683   20684   20697   20700   20684   20697   20699
   20684   20697   20698   20684   20693   20696   20684   20693   20695
   20684   20693   20694   20684   20689   20692   20684   20689   20691
   20684   20689   20690   20684   20685   20688   20684   20685   20687
   20684   20685   20686   20685   20684   20697   20685   20684   20693
   20685   20684   20689   20686   20685   20688   20686   20685   20687
   20687   20685   20688   20689   20684   20697   20689   20684   20693
   20690   20689   20692   20690   20689   20691   20691   20689   20692
   20693   20684   20697   20694   20693   20696   20694   20693   20695
   20695   20693   20696   20697   20700   20707   20697   20700   20702
   20697   20700   20701   20698   20697   20700   20698   20697   20699
   20699   20697   20700   20700   20707   20703   20701   20700   20707
   20701   20700   20702   20702   20700   20707   20703   20706   20708
   20704   20703   20705   20704   20703   20706   20704   20703   20707
   20705   20703   20706   20705   20703   20707   20706   20703   20707
   20706   20708   20709   20706   20708   20710   20706   20708   20711
   20708   20711   20713   20708   20711   20719   20708   20711   20712
   20709   20708   20711   20709   20708   20710   20710   20708   20711
   20711   20719   20722   20711   20719   20721   20711   20719   20720
   20711   20713   20714   20712   20711   20713   20712   20711   20719
   20713   20714   20715   20713   20714   20716   20713   20711   20719
   20714   20716   20728   20714   20716   20718   20714   20716   20717
   20715   20714   20716   20716   20728   20731   20716   20728   20730
   20716   20728   20729   20717   20716   20728   20717   20716   20718
   20718   20716   20728   20719   20722   20723   20720   20719   20722
   20720   20719   20721   20721   20719   20722   20722   20723   20724
   20722   20723   20725   20723   20725   20765   20723   20725   20727
   20723   20725   20726   20724   20723   20725   20725   20765   20768
   20725   20765   20767   20725   20765   20766   20726   20725   20765
   20726   20725   20727   20727   20725   20765   20728   20731   20734
   20728   20731   20733   20728   20731   20732   20729   20728   20731
   20729   20728   20730   20730   20728   20731   20731   20734   20737
   20731   20734   20736   20731   20734   20735   20732   20731   20734
   20732   20731   20733   20733   20731   20734   20734   20737   20740
   20734   20737   20739   20734   20737   20738   20735   20734   20737
   20735   20734   20736   20736   20734   20737   20737   20740   20743
   20737   20740   20742   20737   20740   20741   20738   20737   20740
   20738   20737   20739   20739   20737   20740   20740   20743   20746
   20740   20743   20745   20740   20743   20744   20741   20740   20743
   20741   20740   20742   20742   20740   20743   20743   20746   20749
   20743   20746   20748   20743   20746   20747   20744   20743   20746
   20744   20743   20745   20745   20743   20746   20746   20749   20752
   20746   20749   20751   20746   20749   20750   20747   20746   20749
   20747   20746   20748   20748   20746   20749   20749   20752   20755
   20749   20752   20754   20749   20752   20753   20750   20749   20752
   20750   20749   20751   20751   20749   20752   20752   20755   20758
   20752   20755   20757   20752   20755   20756   20753   20752   20755
   20753   20752   20754   20754   20752   20755   20755   20758   20761
   20755   20758   20760   20755   20758   20759   20756   20755   20758
   20756   20755   20757   20757   20755   20758   20758   20761   20764
   20758   20761   20763   20758   20761   20762   20759   20758   20761
   20759   20758   20760   20760   20758   20761   20762   20761   20764
   20762   20761   20763   20763   20761   20764   20765   20768   20771
   20765   20768   20770   20765   20768   20769   20766   20765   20768
   20766   20765   20767   20767   20765   20768   20768   20771   20774
   20768   20771   20773   20768   20771   20772   20769   20768   20771
   20769   20768   20770   20770   20768   20771   20771   20774   20777
   20771   20774   20776   20771   20774   20775   20772   20771   20774
   20772   20771   20773   20773   20771   20774   20774   20777   20780
   20774   20777   20779   20774   20777   20778   20775   20774   20777
   20775   20774   20776   20776   20774   20777   20777   20780   20783
   20777   20780   20782   20777   20780   20781   20778   20777   20780
   20778   20777   20779   20779   20777   20780   20780   20783   20786
   20780   20783   20785   20780   20783   20784   20781   20780   20783
   20781   20780   20782   20782   20780   20783   20783   20786   20789
   20783   20786   20788   20783   20786   20787   20784   20783   20786
   20784   20783   20785   20785   20783   20786   20786   20789   20792
   20786   20789   20791   20786   20789   20790   20787   20786   20789
   20787   20786   20788   20788   20786   20789   20789   20792   20795
   20789   20792   20794   20789   20792   20793   20790   20789   20792
   20790   20789   20791   20791   20789   20792   20792   20795   20798
   20792   20795   20797   20792   20795   20796   20793   20792   20795
   20793   20792   20794   20794   20792   20795   20795   20798   20801
   20795   20798   20800   20795   20798   20799   20796   20795   20798
   20796   20795   20797   20797   20795   20798   20799   20798   20801
   20799   20798   20800   20800   20798   20801   20802   20815   20818
   20802   20815   20817   20802   20815   20816   20802   20811   20814
   20802   20811   20813   20802   20811   20812   20802   20807   20810
   20802   20807   20809   20802   20807   20808   20802   20803   20806
   20802   20803   20805   20802   20803   20804   20803   20802   20815
   20803   20802   20811   20803   20802   20807   20804   20803   20806
   20804   20803   20805   20805   20803   20806   20807   20802   20815
   20807   20802   20811   20808   20807   20810   20808   20807   20809
   20809   20807   20810   20811   20802   20815   20812   20811   20814
   20812   20811   20813   20813   20811   20814   20815   20818   20825
   20815   20818   20820   20815   20818   20819   20816   20815   20818
   20816   20815   20817   20817   20815   20818   20818   20825   20821
   20819   20818   20825   20819   20818   20820   20820   20818   20825
   20821   20824   20826   20822   20821   20823   20822   20821   20824
   20822   20821   20825   20823   20821   20824   20823   20821   20825
   20824   20821   20825   20824   20826   20827   20824   20826   20828
   20824   20826   20829   20826   20829   20831   20826   20829   20837
   20826   20829   20830   20827   20826   20829   20827   20826   20828
   20828   20826   20829   20829   20837   20840   20829   20837   20839
   20829   20837   20838   20829   20831   20832   20830   20829   20831
   20830   20829   20837   20831   20832   20833   20831   20832   20834
   20831   20829   20837   20832   20834   20846   20832   20834   20836
   20832   20834   20835   20833   20832   20834   20834   20846   20849
   20834   20846   20848   20834   20846   20847   20835   20834   20846
   20835   20834   20836   20836   20834   20846   20837   20840   20841
   20838   20837   20840   20838   20837   20839   20839   20837   20840
   20840   20841   20842   20840   20841   20843   20841   20843   20883
   20841   20843   20845   20841   20843   20844   20842   20841   20843
   20843   20883   20886   20843   20883   20885   20843   20883   20884
   20844   20843   20883   20844   20843   20845   20845   20843   20883
   20846   20849   20852   20846   20849   20851   20846   20849   20850
   20847   20846   20849   20847   20846   20848   20848   20846   20849
   20849   20852   20855   20849   20852   20854   20849   20852   20853
   20850   20849   20852   20850   20849   20851   20851   20849   20852
   20852   20855   20858   20852   20855   20857   20852   20855   20856
   20853   20852   20855   20853   20852   20854   20854   20852   20855
   20855   20858   20861   20855   20858   20860   20855   20858   20859
   20856   20855   20858   20856   20855   20857   20857   20855   20858
   20858   20861   20864   20858   20861   20863   20858   20861   20862
   20859   20858   20861   20859   20858   20860   20860   20858   20861
   20861   20864   20867   20861   20864   20866   20861   20864   20865
   20862   20861   20864   20862   20861   20863   20863   20861   20864
   20864   20867   20870   20864   20867   20869   20864   20867   20868
   20865   20864   20867   20865   20864   20866   20866   20864   20867
   20867   20870   20873   20867   20870   20872   20867   20870   20871
   20868   20867   20870   20868   20867   20869   20869   20867   20870
   20870   20873   20876   20870   20873   20875   20870   20873   20874
   20871   20870   20873   20871   20870   20872   20872   20870   20873
   20873   20876   20879   20873   20876   20878   20873   20876   20877
   20874   20873   20876   20874   20873   20875   20875   20873   20876
   20876   20879   20882   20876   20879   20881   20876   20879   20880
   20877   20876   20879   20877   20876   20878   20878   20876   20879
   20880   20879   20882   20880   20879   20881   20881   20879   20882
   20883   20886   20889   20883   20886   20888   20883   20886   20887
   20884   20883   20886   20884   20883   20885   20885   20883   20886
   20886   20889   20892   20886   20889   20891   20886   20889   20890
   20887   20886   20889   20887   20886   20888   20888   20886   20889
   20889   20892   20895   20889   20892   20894   20889   20892   20893
   20890   20889   20892   20890   20889   20891   20891   20889   20892
   20892   20895   20898   20892   20895   20897   20892   20895   20896
   20893   20892   20895   20893   20892   20894   20894   20892   20895
   20895   20898   20901   20895   20898   20900   20895   20898   20899
   20896   20895   20898   20896   20895   20897   20897   20895   20898
   20898   20901   20904   20898   20901   20903   20898   20901   20902
   20899   20898   20901   20899   20898   20900   20900   20898   20901
   20901   20904   20907   20901   20904   20906   20901   20904   20905
   20902   20901   20904   20902   20901   20903   20903   20901   20904
   20904   20907   20910   20904   20907   20909   20904   20907   20908
   20905   20904   20907   20905   20904   20906   20906   20904   20907
   20907   20910   20913   20907   20910   20912   20907   20910   20911
   20908   20907   20910   20908   20907   20909   20909   20907   20910
   20910   20913   20916   20910   20913   20915   20910   20913   20914
   20911   20910   20913   20911   20910   20912   20912   20910   20913
   20913   20916   20919   20913   20916   20918   20913   20916   20917
   20914   20913   20916   20914   20913   20915   20915   20913   20916
   20917   20916   20919   20917   20916   20918   20918   20916   20919
   20920   20933   20936   20920   20933   20935   20920   20933   20934
   20920   20929   20932   20920   20929   20931   20920   20929   20930
   20920   20925   20928   20920   20925   20927   20920   20925   20926
   20920   20921   20924   20920   20921   20923   20920   20921   20922
   20921   20920   20933   20921   20920   20929   20921   20920   20925
   20922   20921   20924   20922   20921   20923   20923   20921   20924
   20925   20920   20933   20925   20920   20929   20926   20925   20928
   20926   20925   20927   20927   20925   20928   20929   20920   20933
   20930   20929   20932   20930   20929   20931   20931   20929   20932
   20933   20936   20943   20933   20936   20938   20933   20936   20937
   20934   20933   20936   20934   20933   20935   20935   20933   20936
   20936   20943   20939   20937   20936   20943   20937   20936   20938
   20938   20936   20943   20939   20942   20944   20940   20939   20941
   20940   20939   20942   20940   20939   20943   20941   20939   20942
   20941   20939   20943   20942   20939   20943   20942   20944   20945
   20942   20944   20946   20942   20944   20947   20944   20947   20949
   20944   20947   20955   20944   20947   20948   20945   20944   20947
   20945   20944   20946   20946   20944   20947   20947   20955   20958
   20947   20955   20957   20947   20955   20956   20947   20949   20950
   20948   20947   20949   20948   20947   20955   20949   20950   20951
   20949   20950   20952   20949   20947   20955   20950   20952   20964
   20950   20952   20954   20950   20952   20953   20951   20950   20952
   20952   20964   20967   20952   20964   20966   20952   20964   20965
   20953   20952   20964   20953   20952   20954   20954   20952   20964
   20955   20958   20959   20956   20955   20958   20956   20955   20957
   20957   20955   20958   20958   20959   20960   20958   20959   20961
   20959   20961   21001   20959   20961   20963   20959   20961   20962
   20960   20959   20961   20961   21001   21004   20961   21001   21003
   20961   21001   21002   20962   20961   21001   20962   20961   20963
   20963   20961   21001   20964   20967   20970   20964   20967   20969
   20964   20967   20968   20965   20964   20967   20965   20964   20966
   20966   20964   20967   20967   20970   20973   20967   20970   20972
   20967   20970   20971   20968   20967   20970   20968   20967   20969
   20969   20967   20970   20970   20973   20976   20970   20973   20975
   20970   20973   20974   20971   20970   20973   20971   20970   20972
   20972   20970   20973   20973   20976   20979   20973   20976   20978
   20973   20976   20977   20974   20973   20976   20974   20973   20975
   20975   20973   20976   20976   20979   20982   20976   20979   20981
   20976   20979   20980   20977   20976   20979   20977   20976   20978
   20978   20976   20979   20979   20982   20985   20979   20982   20984
   20979   20982   20983   20980   20979   20982   20980   20979   20981
   20981   20979   20982   20982   20985   20988   20982   20985   20987
   20982   20985   20986   20983   20982   20985   20983   20982   20984
   20984   20982   20985   20985   20988   20991   20985   20988   20990
   20985   20988   20989   20986   20985   20988   20986   20985   20987
   20987   20985   20988   20988   20991   20994   20988   20991   20993
   20988   20991   20992   20989   20988   20991   20989   20988   20990
   20990   20988   20991   20991   20994   20997   20991   20994   20996
   20991   20994   20995   20992   20991   20994   20992   20991   20993
   20993   20991   20994   20994   20997   21000   20994   20997   20999
   20994   20997   20998   20995   20994   20997   20995   20994   20996
   20996   20994   20997   20998   20997   21000   20998   20997   20999
   20999   20997   21000   21001   21004   21007   21001   21004   21006
   21001   21004   21005   21002   21001   21004   21002   21001   21003
   21003   21001   21004   21004   21007   21010   21004   21007   21009
   21004   21007   21008   21005   21004   21007   21005   21004   21006
   21006   21004   21007   21007   21010   21013   21007   21010   21012
   21007   21010   21011   21008   21007   21010   21008   21007   21009
   21009   21007   21010   21010   21013   21016   21010   21013   21015
   21010   21013   21014   21011   21010   21013   21011   21010   21012
   21012   21010   21013   21013   21016   21019   21013   21016   21018
   21013   21016   21017   21014   21013   21016   21014   21013   21015
   21015   21013   21016   21016   21019   21022   21016   21019   21021
   21016   21019   21020   21017   21016   21019   21017   21016   21018
   21018   21016   21019   21019   21022   21025   21019   21022   21024
   21019   21022   21023   21020   21019   21022   21020   21019   21021
   21021   21019   21022   21022   21025   21028   21022   21025   21027
   21022   21025   21026   21023   21022   21025   21023   21022   21024
   21024   21022   21025   21025   21028   21031   21025   21028   21030
   21025   21028   21029   21026   21025   21028   21026   21025   21027
   21027   21025   21028   21028   21031   21034   21028   21031   21033
   21028   21031   21032   21029   21028   21031   21029   21028   21030
   21030   21028   21031   21031   21034   21037   21031   21034   21036
   21031   21034   21035   21032   21031   21034   21032   21031   21033
   21033   21031   21034   21035   21034   21037   21035   21034   21036
   21036   21034   21037   21038   21051   21054   21038   21051   21053
   21038   21051   21052   21038   21047   21050   21038   21047   21049
   21038   21047   21048   21038   21043   21046   21038   21043   21045
   21038   21043   21044   21038   21039   21042   21038   21039   21041
   21038   21039   21040   21039   21038   21051   21039   21038   21047
   21039   21038   21043   21040   21039   21042   21040   21039   21041
   21041   21039   21042   21043   21038   21051   21043   21038   21047
   21044   21043   21046   21044   21043   21045   21045   21043   21046
   21047   21038   21051   21048   21047   21050   21048   21047   21049
   21049   21047   21050   21051   21054   21061   21051   21054   21056
   21051   21054   21055   21052   21051   21054   21052   21051   21053
   21053   21051   21054   21054   21061   21057   21055   21054   21061
   21055   21054   21056   21056   21054   21061   21057   21060   21062
   21058   21057   21059   21058   21057   21060   21058   21057   21061
   21059   21057   21060   21059   21057   21061   21060   21057   21061
   21060   21062   21063   21060   21062   21064   21060   21062   21065
   21062   21065   21067   21062   21065   21073   21062   21065   21066
   21063   21062   21065   21063   21062   21064   21064   21062   21065
   21065   21073   21076   21065   21073   21075   21065   21073   21074
   21065   21067   21068   21066   21065   21067   21066   21065   21073
   21067   21068   21069   21067   21068   21070   21067   21065   21073
   21068   21070   21082   21068   21070   21072   21068   21070   21071
   21069   21068   21070   21070   21082   21085   21070   21082   21084
   21070   21082   21083   21071   21070   21082   21071   21070   21072
   21072   21070   21082   21073   21076   21077   21074   21073   21076
   21074   21073   21075   21075   21073   21076   21076   21077   21078
   21076   21077   21079   21077   21079   21119   21077   21079   21081
   21077   21079   21080   21078   21077   21079   21079   21119   21122
   21079   21119   21121   21079   21119   21120   21080   21079   21119
   21080   21079   21081   21081   21079   21119   21082   21085   21088
   21082   21085   21087   21082   21085   21086   21083   21082   21085
   21083   21082   21084   21084   21082   21085   21085   21088   21091
   21085   21088   21090   21085   21088   21089   21086   21085   21088
   21086   21085   21087   21087   21085   21088   21088   21091   21094
   21088   21091   21093   21088   21091   21092   21089   21088   21091
   21089   21088   21090   21090   21088   21091   21091   21094   21097
   21091   21094   21096   21091   21094   21095   21092   21091   21094
   21092   21091   21093   21093   21091   21094   21094   21097   21100
   21094   21097   21099   21094   21097   21098   21095   21094   21097
   21095   21094   21096   21096   21094   21097   21097   21100   21103
   21097   21100   21102   21097   21100   21101   21098   21097   21100
   21098   21097   21099   21099   21097   21100   21100   21103   21106
   21100   21103   21105   21100   21103   21104   21101   21100   21103
   21101   21100   21102   21102   21100   21103   21103   21106   21109
   21103   21106   21108   21103   21106   21107   21104   21103   21106
   21104   21103   21105   21105   21103   21106   21106   21109   21112
   21106   21109   21111   21106   21109   21110   21107   21106   21109
   21107   21106   21108   21108   21106   21109   21109   21112   21115
   21109   21112   21114   21109   21112   21113   21110   21109   21112
   21110   21109   21111   21111   21109   21112   21112   21115   21118
   21112   21115   21117   21112   21115   21116   21113   21112   21115
   21113   21112   21114   21114   21112   21115   21116   21115   21118
   21116   21115   21117   21117   21115   21118   21119   21122   21125
   21119   21122   21124   21119   21122   21123   21120   21119   21122
   21120   21119   21121   21121   21119   21122   21122   21125   21128
   21122   21125   21127   21122   21125   21126   21123   21122   21125
   21123   21122   21124   21124   21122   21125   21125   21128   21131
   21125   21128   21130   21125   21128   21129   21126   21125   21128
   21126   21125   21127   21127   21125   21128   21128   21131   21134
   21128   21131   21133   21128   21131   21132   21129   21128   21131
   21129   21128   21130   21130   21128   21131   21131   21134   21137
   21131   21134   21136   21131   21134   21135   21132   21131   21134
   21132   21131   21133   21133   21131   21134   21134   21137   21140
   21134   21137   21139   21134   21137   21138   21135   21134   21137
   21135   21134   21136   21136   21134   21137   21137   21140   21143
   21137   21140   21142   21137   21140   21141   21138   21137   21140
   21138   21137   21139   21139   21137   21140   21140   21143   21146
   21140   21143   21145   21140   21143   21144   21141   21140   21143
   21141   21140   21142   21142   21140   21143   21143   21146   21149
   21143   21146   21148   21143   21146   21147   21144   21143   21146
   21144   21143   21145   21145   21143   21146   21146   21149   21152
   21146   21149   21151   21146   21149   21150   21147   21146   21149
   21147   21146   21148   21148   21146   21149   21149   21152   21155
   21149   21152   21154   21149   21152   21153   21150   21149   21152
   21150   21149   21151   21151   21149   21152   21153   21152   21155
   21153   21152   21154   21154   21152   21155   21156   21169   21172
   21156   21169   21171   21156   21169   21170   21156   21165   21168
   21156   21165   21167   21156   21165   21166   21156   21161   21164
   21156   21161   21163   21156   21161   21162   21156   21157   21160
   21156   21157   21159   21156   21157   21158   21157   21156   21169
   21157   21156   21165   21157   21156   21161   21158   21157   21160
   21158   21157   21159   21159   21157   21160   21161   21156   21169
   21161   21156   21165   21162   21161   21164   21162   21161   21163
   21163   21161   21164   21165   21156   21169   21166   21165   21168
   21166   21165   21167   21167   21165   21168   21169   21172   21179
   21169   21172   21174   21169   21172   21173   21170   21169   21172
   21170   21169   21171   21171   21169   21172   21172   21179   21175
   21173   21172   21179   21173   21172   21174   21174   21172   21179
   21175   21178   21180   21176   21175   21177   21176   21175   21178
   21176   21175   21179   21177   21175   21178   21177   21175   21179
   21178   21175   21179   21178   21180   21181   21178   21180   21182
   21178   21180   21183   21180   21183   21185   21180   21183   21191
   21180   21183   21184   21181   21180   21183   21181   21180   21182
   21182   21180   21183   21183   21191   21194   21183   21191   21193
   21183   21191   21192   21183   21185   21186   21184   21183   21185
   21184   21183   21191   21185   21186   21187   21185   21186   21188
   21185   21183   21191   21186   21188   21200   21186   21188   21190
   21186   21188   21189   21187   21186   21188   21188   21200   21203
   21188   21200   21202   21188   21200   21201   21189   21188   21200
   21189   21188   21190   21190   21188   21200   21191   21194   21195
   21192   21191   21194   21192   21191   21193   21193   21191   21194
   21194   21195   21196   21194   21195   21197   21195   21197   21237
   21195   21197   21199   21195   21197   21198   21196   21195   21197
   21197   21237   21240   21197   21237   21239   21197   21237   21238
   21198   21197   21237   21198   21197   21199   21199   21197   21237
   21200   21203   21206   21200   21203   21205   21200   21203   21204
   21201   21200   21203   21201   21200   21202   21202   21200   21203
   21203   21206   21209   21203   21206   21208   21203   21206   21207
   21204   21203   21206   21204   21203   21205   21205   21203   21206
   21206   21209   21212   21206   21209   21211   21206   21209   21210
   21207   21206   21209   21207   21206   21208   21208   21206   21209
   21209   21212   21215   21209   21212   21214   21209   21212   21213
   21210   21209   21212   21210   21209   21211   21211   21209   21212
   21212   21215   21218   21212   21215   21217   21212   21215   21216
   21213   21212   21215   21213   21212   21214   21214   21212   21215
   21215   21218   21221   21215   21218   21220   21215   21218   21219
   21216   21215   21218   21216   21215   21217   21217   21215   21218
   21218   21221   21224   21218   21221   21223   21218   21221   21222
   21219   21218   21221   21219   21218   21220   21220   21218   21221
   21221   21224   21227   21221   21224   21226   21221   21224   21225
   21222   21221   21224   21222   21221   21223   21223   21221   21224
   21224   21227   21230   21224   21227   21229   21224   21227   21228
   21225   21224   21227   21225   21224   21226   21226   21224   21227
   21227   21230   21233   21227   21230   21232   21227   21230   21231
   21228   21227   21230   21228   21227   21229   21229   21227   21230
   21230   21233   21236   21230   21233   21235   21230   21233   21234
   21231   21230   21233   21231   21230   21232   21232   21230   21233
   21234   21233   21236   21234   21233   21235   21235   21233   21236
   21237   21240   21243   21237   21240   21242   21237   21240   21241
   21238   21237   21240   21238   21237   21239   21239   21237   21240
   21240   21243   21246   21240   21243   21245   21240   21243   21244
   21241   21240   21243   21241   21240   21242   21242   21240   21243
   21243   21246   21249   21243   21246   21248   21243   21246   21247
   21244   21243   21246   21244   21243   21245   21245   21243   21246
   21246   21249   21252   21246   21249   21251   21246   21249   21250
   21247   21246   21249   21247   21246   21248   21248   21246   21249
   21249   21252   21255   21249   21252   21254   21249   21252   21253
   21250   21249   21252   21250   21249   21251   21251   21249   21252
   21252   21255   21258   21252   21255   21257   21252   21255   21256
   21253   21252   21255   21253   21252   21254   21254   21252   21255
   21255   21258   21261   21255   21258   21260   21255   21258   21259
   21256   21255   21258   21256   21255   21257   21257   21255   21258
   21258   21261   21264   21258   21261   21263   21258   21261   21262
   21259   21258   21261   21259   21258   21260   21260   21258   21261
   21261   21264   21267   21261   21264   21266   21261   21264   21265
   21262   21261   21264   21262   21261   21263   21263   21261   21264
   21264   21267   21270   21264   21267   21269   21264   21267   21268
   21265   21264   21267   21265   21264   21266   21266   21264   21267
   21267   21270   21273   21267   21270   21272   21267   21270   21271
   21268   21267   21270   21268   21267   21269   21269   21267   21270
   21271   21270   21273   21271   21270   21272   21272   21270   21273
   21274   21287   21290   21274   21287   21289   21274   21287   21288
   21274   21283   21286   21274   21283   21285   21274   21283   21284
   21274   21279   21282   21274   21279   21281   21274   21279   21280
   21274   21275   21278   21274   21275   21277   21274   21275   21276
   21275   21274   21287   21275   21274   21283   21275   21274   21279
   21276   21275   21278   21276   21275   21277   21277   21275   21278
   21279   21274   21287   21279   21274   21283   21280   21279   21282
   21280   21279   21281   21281   21279   21282   21283   21274   21287
   21284   21283   21286   21284   21283   21285   21285   21283   21286
   21287   21290   21297   21287   21290   21292   21287   21290   21291
   21288   21287   21290   21288   21287   21289   21289   21287   21290
   21290   21297   21293   21291   21290   21297   21291   21290   21292
   21292   21290   21297   21293   21296   21298   21294   21293   21295
   21294   21293   21296   21294   21293   21297   21295   21293   21296
   21295   21293   21297   21296   21293   21297   21296   21298   21299
   21296   21298   21300   21296   21298   21301   21298   21301   21303
   21298   21301   21309   21298   21301   21302   21299   21298   21301
   21299   21298   21300   21300   21298   21301   21301   21309   21312
   21301   21309   21311   21301   21309   21310   21301   21303   21304
   21302   21301   21303   21302   21301   21309   21303   21304   21305
   21303   21304   21306   21303   21301   21309   21304   21306   21318
   21304   21306   21308   21304   21306   21307   21305   21304   21306
   21306   21318   21321   21306   21318   21320   21306   21318   21319
   21307   21306   21318   21307   21306   21308   21308   21306   21318
   21309   21312   21313   21310   21309   21312   21310   21309   21311
   21311   21309   21312   21312   21313   21314   21312   21313   21315
   21313   21315   21355   21313   21315   21317   21313   21315   21316
   21314   21313   21315   21315   21355   21358   21315   21355   21357
   21315   21355   21356   21316   21315   21355   21316   21315   21317
   21317   21315   21355   21318   21321   21324   21318   21321   21323
   21318   21321   21322   21319   21318   21321   21319   21318   21320
   21320   21318   21321   21321   21324   21327   21321   21324   21326
   21321   21324   21325   21322   21321   21324   21322   21321   21323
   21323   21321   21324   21324   21327   21330   21324   21327   21329
   21324   21327   21328   21325   21324   21327   21325   21324   21326
   21326   21324   21327   21327   21330   21333   21327   21330   21332
   21327   21330   21331   21328   21327   21330   21328   21327   21329
   21329   21327   21330   21330   21333   21336   21330   21333   21335
   21330   21333   21334   21331   21330   21333   21331   21330   21332
   21332   21330   21333   21333   21336   21339   21333   21336   21338
   21333   21336   21337   21334   21333   21336   21334   21333   21335
   21335   21333   21336   21336   21339   21342   21336   21339   21341
   21336   21339   21340   21337   21336   21339   21337   21336   21338
   21338   21336   21339   21339   21342   21345   21339   21342   21344
   21339   21342   21343   21340   21339   21342   21340   21339   21341
   21341   21339   21342   21342   21345   21348   21342   21345   21347
   21342   21345   21346   21343   21342   21345   21343   21342   21344
   21344   21342   21345   21345   21348   21351   21345   21348   21350
   21345   21348   21349   21346   21345   21348   21346   21345   21347
   21347   21345   21348   21348   21351   21354   21348   21351   21353
   21348   21351   21352   21349   21348   21351   21349   21348   21350
   21350   21348   21351   21352   21351   21354   21352   21351   21353
   21353   21351   21354   21355   21358   21361   21355   21358   21360
   21355   21358   21359   21356   21355   21358   21356   21355   21357
   21357   21355   21358   21358   21361   21364   21358   21361   21363
   21358   21361   21362   21359   21358   21361   21359   21358   21360
   21360   21358   21361   21361   21364   21367   21361   21364   21366
   21361   21364   21365   21362   21361   21364   21362   21361   21363
   21363   21361   21364   21364   21367   21370   21364   21367   21369
   21364   21367   21368   21365   21364   21367   21365   21364   21366
   21366   21364   21367   21367   21370   21373   21367   21370   21372
   21367   21370   21371   21368   21367   21370   21368   21367   21369
   21369   21367   21370   21370   21373   21376   21370   21373   21375
   21370   21373   21374   21371   21370   21373   21371   21370   21372
   21372   21370   21373   21373   21376   21379   21373   21376   21378
   21373   21376   21377   21374   21373   21376   21374   21373   21375
   21375   21373   21376   21376   21379   21382   21376   21379   21381
   21376   21379   21380   21377   21376   21379   21377   21376   21378
   21378   21376   21379   21379   21382   21385   21379   21382   21384
   21379   21382   21383   21380   21379   21382   21380   21379   21381
   21381   21379   21382   21382   21385   21388   21382   21385   21387
   21382   21385   21386   21383   21382   21385   21383   21382   21384
   21384   21382   21385   21385   21388   21391   21385   21388   21390
   21385   21388   21389   21386   21385   21388   21386   21385   21387
   21387   21385   21388   21389   21388   21391   21389   21388   21390
   21390   21388   21391   21392   21405   21408   21392   21405   21407
   21392   21405   21406   21392   21401   21404   21392   21401   21403
   21392   21401   21402   21392   21397   21400   21392   21397   21399
   21392   21397   21398   21392   21393   21396   21392   21393   21395
   21392   21393   21394   21393   21392   21405   21393   21392   21401
   21393   21392   21397   21394   21393   21396   21394   21393   21395
   21395   21393   21396   21397   21392   21405   21397   21392   21401
   21398   21397   21400   21398   21397   21399   21399   21397   21400
   21401   21392   21405   21402   21401   21404   21402   21401   21403
   21403   21401   21404   21405   21408   21415   21405   21408   21410
   21405   21408   21409   21406   21405   21408   21406   21405   21407
   21407   21405   21408   21408   21415   21411   21409   21408   21415
   21409   21408   21410   21410   21408   21415   21411   21414   21416
   21412   21411   21413   21412   21411   21414   21412   21411   21415
   21413   21411   21414   21413   21411   21415   21414   21411   21415
   21414   21416   21417   21414   21416   21418   21414   21416   21419
   21416   21419   21421   21416   21419   21427   21416   21419   21420
   21417   21416   21419   21417   21416   21418   21418   21416   21419
   21419   21427   21430   21419   21427   21429   21419   21427   21428
   21419   21421   21422   21420   21419   21421   21420   21419   21427
   21421   21422   21423   21421   21422   21424   21421   21419   21427
   21422   21424   21436   21422   21424   21426   21422   21424   21425
   21423   21422   21424   21424   21436   21439   21424   21436   21438
   21424   21436   21437   21425   21424   21436   21425   21424   21426
   21426   21424   21436   21427   21430   21431   21428   21427   21430
   21428   21427   21429   21429   21427   21430   21430   21431   21432
   21430   21431   21433   21431   21433   21473   21431   21433   21435
   21431   21433   21434   21432   21431   21433   21433   21473   21476
   21433   21473   21475   21433   21473   21474   21434   21433   21473
   21434   21433   21435   21435   21433   21473   21436   21439   21442
   21436   21439   21441   21436   21439   21440   21437   21436   21439
   21437   21436   21438   21438   21436   21439   21439   21442   21445
   21439   21442   21444   21439   21442   21443   21440   21439   21442
   21440   21439   21441   21441   21439   21442   21442   21445   21448
   21442   21445   21447   21442   21445   21446   21443   21442   21445
   21443   21442   21444   21444   21442   21445   21445   21448   21451
   21445   21448   21450   21445   21448   21449   21446   21445   21448
   21446   21445   21447   21447   21445   21448   21448   21451   21454
   21448   21451   21453   21448   21451   21452   21449   21448   21451
   21449   21448   21450   21450   21448   21451   21451   21454   21457
   21451   21454   21456   21451   21454   21455   21452   21451   21454
   21452   21451   21453   21453   21451   21454   21454   21457   21460
   21454   21457   21459   21454   21457   21458   21455   21454   21457
   21455   21454   21456   21456   21454   21457   21457   21460   21463
   21457   21460   21462   21457   21460   21461   21458   21457   21460
   21458   21457   21459   21459   21457   21460   21460   21463   21466
   21460   21463   21465   21460   21463   21464   21461   21460   21463
   21461   21460   21462   21462   21460   21463   21463   21466   21469
   21463   21466   21468   21463   21466   21467   21464   21463   21466
   21464   21463   21465   21465   21463   21466   21466   21469   21472
   21466   21469   21471   21466   21469   21470   21467   21466   21469
   21467   21466   21468   21468   21466   21469   21470   21469   21472
   21470   21469   21471   21471   21469   21472   21473   21476   21479
   21473   21476   21478   21473   21476   21477   21474   21473   21476
   21474   21473   21475   21475   21473   21476   21476   21479   21482
   21476   21479   21481   21476   21479   21480   21477   21476   21479
   21477   21476   21478   21478   21476   21479   21479   21482   21485
   21479   21482   21484   21479   21482   21483   21480   21479   21482
   21480   21479   21481   21481   21479   21482   21482   21485   21488
   21482   21485   21487   21482   21485   21486   21483   21482   21485
   21483   21482   21484   21484   21482   21485   21485   21488   21491
   21485   21488   21490   21485   21488   21489   21486   21485   21488
   21486   21485   21487   21487   21485   21488   21488   21491   21494
   21488   21491   21493   21488   21491   21492   21489   21488   21491
   21489   21488   21490   21490   21488   21491   21491   21494   21497
   21491   21494   21496   21491   21494   21495   21492   21491   21494
   21492   21491   21493   21493   21491   21494   21494   21497   21500
   21494   21497   21499   21494   21497   21498   21495   21494   21497
   21495   21494   21496   21496   21494   21497   21497   21500   21503
   21497   21500   21502   21497   21500   21501   21498   21497   21500
   21498   21497   21499   21499   21497   21500   21500   21503   21506
   21500   21503   21505   21500   21503   21504   21501   21500   21503
   21501   21500   21502   21502   21500   21503   21503   21506   21509
   21503   21506   21508   21503   21506   21507   21504   21503   21506
   21504   21503   21505   21505   21503   21506   21507   21506   21509
   21507   21506   21508   21508   21506   21509   21510   21523   21526
   21510   21523   21525   21510   21523   21524   21510   21519   21522
   21510   21519   21521   21510   21519   21520   21510   21515   21518
   21510   21515   21517   21510   21515   21516   21510   21511   21514
   21510   21511   21513   21510   21511   21512   21511   21510   21523
   21511   21510   21519   21511   21510   21515   21512   21511   21514
   21512   21511   21513   21513   21511   21514   21515   21510   21523
   21515   21510   21519   21516   21515   21518   21516   21515   21517
   21517   21515   21518   21519   21510   21523   21520   21519   21522
   21520   21519   21521   21521   21519   21522   21523   21526   21533
   21523   21526   21528   21523   21526   21527   21524   21523   21526
   21524   21523   21525   21525   21523   21526   21526   21533   21529
   21527   21526   21533   21527   21526   21528   21528   21526   21533
   21529   21532   21534   21530   21529   21531   21530   21529   21532
   21530   21529   21533   21531   21529   21532   21531   21529   21533
   21532   21529   21533   21532   21534   21535   21532   21534   21536
   21532   21534   21537   21534   21537   21539   21534   21537   21545
   21534   21537   21538   21535   21534   21537   21535   21534   21536
   21536   21534   21537   21537   21545   21548   21537   21545   21547
   21537   21545   21546   21537   21539   21540   21538   21537   21539
   21538   21537   21545   21539   21540   21541   21539   21540   21542
   21539   21537   21545   21540   21542   21554   21540   21542   21544
   21540   21542   21543   21541   21540   21542   21542   21554   21557
   21542   21554   21556   21542   21554   21555   21543   21542   21554
   21543   21542   21544   21544   21542   21554   21545   21548   21549
   21546   21545   21548   21546   21545   21547   21547   21545   21548
   21548   21549   21550   21548   21549   21551   21549   21551   21591
   21549   21551   21553   21549   21551   21552   21550   21549   21551
   21551   21591   21594   21551   21591   21593   21551   21591   21592
   21552   21551   21591   21552   21551   21553   21553   21551   21591
   21554   21557   21560   21554   21557   21559   21554   21557   21558
   21555   21554   21557   21555   21554   21556   21556   21554   21557
   21557   21560   21563   21557   21560   21562   21557   21560   21561
   21558   21557   21560   21558   21557   21559   21559   21557   21560
   21560   21563   21566   21560   21563   21565   21560   21563   21564
   21561   21560   21563   21561   21560   21562   21562   21560   21563
   21563   21566   21569   21563   21566   21568   21563   21566   21567
   21564   21563   21566   21564   21563   21565   21565   21563   21566
   21566   21569   21572   21566   21569   21571   21566   21569   21570
   21567   21566   21569   21567   21566   21568   21568   21566   21569
   21569   21572   21575   21569   21572   21574   21569   21572   21573
   21570   21569   21572   21570   21569   21571   21571   21569   21572
   21572   21575   21578   21572   21575   21577   21572   21575   21576
   21573   21572   21575   21573   21572   21574   21574   21572   21575
   21575   21578   21581   21575   21578   21580   21575   21578   21579
   21576   21575   21578   21576   21575   21577   21577   21575   21578
   21578   21581   21584   21578   21581   21583   21578   21581   21582
   21579   21578   21581   21579   21578   21580   21580   21578   21581
   21581   21584   21587   21581   21584   21586   21581   21584   21585
   21582   21581   21584   21582   21581   21583   21583   21581   21584
   21584   21587   21590   21584   21587   21589   21584   21587   21588
   21585   21584   21587   21585   21584   21586   21586   21584   21587
   21588   21587   21590   21588   21587   21589   21589   21587   21590
   21591   21594   21597   21591   21594   21596   21591   21594   21595
   21592   21591   21594   21592   21591   21593   21593   21591   21594
   21594   21597   21600   21594   21597   21599   21594   21597   21598
   21595   21594   21597   21595   21594   21596   21596   21594   21597
   21597   21600   21603   21597   21600   21602   21597   21600   21601
   21598   21597   21600   21598   21597   21599   21599   21597   21600
   21600   21603   21606   21600   21603   21605   21600   21603   21604
   21601   21600   21603   21601   21600   21602   21602   21600   21603
   21603   21606   21609   21603   21606   21608   21603   21606   21607
   21604   21603   21606   21604   21603   21605   21605   21603   21606
   21606   21609   21612   21606   21609   21611   21606   21609   21610
   21607   21606   21609   21607   21606   21608   21608   21606   21609
   21609   21612   21615   21609   21612   21614   21609   21612   21613
   21610   21609   21612   21610   21609   21611   21611   21609   21612
   21612   21615   21618   21612   21615   21617   21612   21615   21616
   21613   21612   21615   21613   21612   21614   21614   21612   21615
   21615   21618   21621   21615   21618   21620   21615   21618   21619
   21616   21615   21618   21616   21615   21617   21617   21615   21618
   21618   21621   21624   21618   21621   21623   21618   21621   21622
   21619   21618   21621   21619   21618   21620   21620   21618   21621
   21621   21624   21627   21621   21624   21626   21621   21624   21625
   21622   21621   21624   21622   21621   21623   21623   21621   21624
   21625   21624   21627   21625   21624   21626   21626   21624   21627
   21628   21641   21644   21628   21641   21643   21628   21641   21642
   21628   21637   21640   21628   21637   21639   21628   21637   21638
   21628   21633   21636   21628   21633   21635   21628   21633   21634
   21628   21629   21632   21628   21629   21631   21628   21629   21630
   21629   21628   21641   21629   21628   21637   21629   21628   21633
   21630   21629   21632   21630   21629   21631   21631   21629   21632
   21633   21628   21641   21633   21628   21637   21634   21633   21636
   21634   21633   21635   21635   21633   21636   21637   21628   21641
   21638   21637   21640   21638   21637   21639   21639   21637   21640
   21641   21644   21651   21641   21644   21646   21641   21644   21645
   21642   21641   21644   21642   21641   21643   21643   21641   21644
   21644   21651   21647   21645   21644   21651   21645   21644   21646
   21646   21644   21651   21647   21650   21652   21648   21647   21649
   21648   21647   21650   21648   21647   21651   21649   21647   21650
   21649   21647   21651   21650   21647   21651   21650   21652   21653
   21650   21652   21654   21650   21652   21655   21652   21655   21657
   21652   21655   21663   21652   21655   21656   21653   21652   21655
   21653   21652   21654   21654   21652   21655   21655   21663   21666
   21655   21663   21665   21655   21663   21664   21655   21657   21658
   21656   21655   21657   21656   21655   21663   21657   21658   21659
   21657   21658   21660   21657   21655   21663   21658   21660   21672
   21658   21660   21662   21658   21660   21661   21659   21658   21660
   21660   21672   21675   21660   21672   21674   21660   21672   21673
   21661   21660   21672   21661   21660   21662   21662   21660   21672
   21663   21666   21667   21664   21663   21666   21664   21663   21665
   21665   21663   21666   21666   21667   21668   21666   21667   21669
   21667   21669   21709   21667   21669   21671   21667   21669   21670
   21668   21667   21669   21669   21709   21712   21669   21709   21711
   21669   21709   21710   21670   21669   21709   21670   21669   21671
   21671   21669   21709   21672   21675   21678   21672   21675   21677
   21672   21675   21676   21673   21672   21675   21673   21672   21674
   21674   21672   21675   21675   21678   21681   21675   21678   21680
   21675   21678   21679   21676   21675   21678   21676   21675   21677
   21677   21675   21678   21678   21681   21684   21678   21681   21683
   21678   21681   21682   21679   21678   21681   21679   21678   21680
   21680   21678   21681   21681   21684   21687   21681   21684   21686
   21681   21684   21685   21682   21681   21684   21682   21681   21683
   21683   21681   21684   21684   21687   21690   21684   21687   21689
   21684   21687   21688   21685   21684   21687   21685   21684   21686
   21686   21684   21687   21687   21690   21693   21687   21690   21692
   21687   21690   21691   21688   21687   21690   21688   21687   21689
   21689   21687   21690   21690   21693   21696   21690   21693   21695
   21690   21693   21694   21691   21690   21693   21691   21690   21692
   21692   21690   21693   21693   21696   21699   21693   21696   21698
   21693   21696   21697   21694   21693   21696   21694   21693   21695
   21695   21693   21696   21696   21699   21702   21696   21699   21701
   21696   21699   21700   21697   21696   21699   21697   21696   21698
   21698   21696   21699   21699   21702   21705   21699   21702   21704
   21699   21702   21703   21700   21699   21702   21700   21699   21701
   21701   21699   21702   21702   21705   21708   21702   21705   21707
   21702   21705   21706   21703   21702   21705   21703   21702   21704
   21704   21702   21705   21706   21705   21708   21706   21705   21707
   21707   21705   21708   21709   21712   21715   21709   21712   21714
   21709   21712   21713   21710   21709   21712   21710   21709   21711
   21711   21709   21712   21712   21715   21718   21712   21715   21717
   21712   21715   21716   21713   21712   21715   21713   21712   21714
   21714   21712   21715   21715   21718   21721   21715   21718   21720
   21715   21718   21719   21716   21715   21718   21716   21715   21717
   21717   21715   21718   21718   21721   21724   21718   21721   21723
   21718   21721   21722   21719   21718   21721   21719   21718   21720
   21720   21718   21721   21721   21724   21727   21721   21724   21726
   21721   21724   21725   21722   21721   21724   21722   21721   21723
   21723   21721   21724   21724   21727   21730   21724   21727   21729
   21724   21727   21728   21725   21724   21727   21725   21724   21726
   21726   21724   21727   21727   21730   21733   21727   21730   21732
   21727   21730   21731   21728   21727   21730   21728   21727   21729
   21729   21727   21730   21730   21733   21736   21730   21733   21735
   21730   21733   21734   21731   21730   21733   21731   21730   21732
   21732   21730   21733   21733   21736   21739   21733   21736   21738
   21733   21736   21737   21734   21733   21736   21734   21733   21735
   21735   21733   21736   21736   21739   21742   21736   21739   21741
   21736   21739   21740   21737   21736   21739   21737   21736   21738
   21738   21736   21739   21739   21742   21745   21739   21742   21744
   21739   21742   21743   21740   21739   21742   21740   21739   21741
   21741   21739   21742   21743   21742   21745   21743   21742   21744
   21744   21742   21745   21746   21759   21762   21746   21759   21761
   21746   21759   21760   21746   21755   21758   21746   21755   21757
   21746   21755   21756   21746   21751   21754   21746   21751   21753
   21746   21751   21752   21746   21747   21750   21746   21747   21749
   21746   21747   21748   21747   21746   21759   21747   21746   21755
   21747   21746   21751   21748   21747   21750   21748   21747   21749
   21749   21747   21750   21751   21746   21759   21751   21746   21755
   21752   21751   21754   21752   21751   21753   21753   21751   21754
   21755   21746   21759   21756   21755   21758   21756   21755   21757
   21757   21755   21758   21759   21762   21769   21759   21762   21764
   21759   21762   21763   21760   21759   21762   21760   21759   21761
   21761   21759   21762   21762   21769   21765   21763   21762   21769
   21763   21762   21764   21764   21762   21769   21765   21768   21770
   21766   21765   21767   21766   21765   21768   21766   21765   21769
   21767   21765   21768   21767   21765   21769   21768   21765   21769
   21768   21770   21771   21768   21770   21772   21768   21770   21773
   21770   21773   21775   21770   21773   21781   21770   21773   21774
   21771   21770   21773   21771   21770   21772   21772   21770   21773
   21773   21781   21784   21773   21781   21783   21773   21781   21782
   21773   21775   21776   21774   21773   21775   21774   21773   21781
   21775   21776   21777   21775   21776   21778   21775   21773   21781
   21776   21778   21790   21776   21778   21780   21776   21778   21779
   21777   21776   21778   21778   21790   21793   21778   21790   21792
   21778   21790   21791   21779   21778   21790   21779   21778   21780
   21780   21778   21790   21781   21784   21785   21782   21781   21784
   21782   21781   21783   21783   21781   21784   21784   21785   21786
   21784   21785   21787   21785   21787   21827   21785   21787   21789
   21785   21787   21788   21786   21785   21787   21787   21827   21830
   21787   21827   21829   21787   21827   21828   21788   21787   21827
   21788   21787   21789   21789   21787   21827   21790   21793   21796
   21790   21793   21795   21790   21793   21794   21791   21790   21793
   21791   21790   21792   21792   21790   21793   21793   21796   21799
   21793   21796   21798   21793   21796   21797   21794   21793   21796
   21794   21793   21795   21795   21793   21796   21796   21799   21802
   21796   21799   21801   21796   21799   21800   21797   21796   21799
   21797   21796   21798   21798   21796   21799   21799   21802   21805
   21799   21802   21804   21799   21802   21803   21800   21799   21802
   21800   21799   21801   21801   21799   21802   21802   21805   21808
   21802   21805   21807   21802   21805   21806   21803   21802   21805
   21803   21802   21804   21804   21802   21805   21805   21808   21811
   21805   21808   21810   21805   21808   21809   21806   21805   21808
   21806   21805   21807   21807   21805   21808   21808   21811   21814
   21808   21811   21813   21808   21811   21812   21809   21808   21811
   21809   21808   21810   21810   21808   21811   21811   21814   21817
   21811   21814   21816   21811   21814   21815   21812   21811   21814
   21812   21811   21813   21813   21811   21814   21814   21817   21820
   21814   21817   21819   21814   21817   21818   21815   21814   21817
   21815   21814   21816   21816   21814   21817   21817   21820   21823
   21817   21820   21822   21817   21820   21821   21818   21817   21820
   21818   21817   21819   21819   21817   21820   21820   21823   21826
   21820   21823   21825   21820   21823   21824   21821   21820   21823
   21821   21820   21822   21822   21820   21823   21824   21823   21826
   21824   21823   21825   21825   21823   21826   21827   21830   21833
   21827   21830   21832   21827   21830   21831   21828   21827   21830
   21828   21827   21829   21829   21827   21830   21830   21833   21836
   21830   21833   21835   21830   21833   21834   21831   21830   21833
   21831   21830   21832   21832   21830   21833   21833   21836   21839
   21833   21836   21838   21833   21836   21837   21834   21833   21836
   21834   21833   21835   21835   21833   21836   21836   21839   21842
   21836   21839   21841   21836   21839   21840   21837   21836   21839
   21837   21836   21838   21838   21836   21839   21839   21842   21845
   21839   21842   21844   21839   21842   21843   21840   21839   21842
   21840   21839   21841   21841   21839   21842   21842   21845   21848
   21842   21845   21847   21842   21845   21846   21843   21842   21845
   21843   21842   21844   21844   21842   21845   21845   21848   21851
   21845   21848   21850   21845   21848   21849   21846   21845   21848
   21846   21845   21847   21847   21845   21848   21848   21851   21854
   21848   21851   21853   21848   21851   21852   21849   21848   21851
   21849   21848   21850   21850   21848   21851   21851   21854   21857
   21851   21854   21856   21851   21854   21855   21852   21851   21854
   21852   21851   21853   21853   21851   21854   21854   21857   21860
   21854   21857   21859   21854   21857   21858   21855   21854   21857
   21855   21854   21856   21856   21854   21857   21857   21860   21863
   21857   21860   21862   21857   21860   21861   21858   21857   21860
   21858   21857   21859   21859   21857   21860   21861   21860   21863
   21861   21860   21862   21862   21860   21863   21864   21877   21880
   21864   21877   21879   21864   21877   21878   21864   21873   21876
   21864   21873   21875   21864   21873   21874   21864   21869   21872
   21864   21869   21871   21864   21869   21870   21864   21865   21868
   21864   21865   21867   21864   21865   21866   21865   21864   21877
   21865   21864   21873   21865   21864   21869   21866   21865   21868
   21866   21865   21867   21867   21865   21868   21869   21864   21877
   21869   21864   21873   21870   21869   21872   21870   21869   21871
   21871   21869   21872   21873   21864   21877   21874   21873   21876
   21874   21873   21875   21875   21873   21876   21877   21880   21887
   21877   21880   21882   21877   21880   21881   21878   21877   21880
   21878   21877   21879   21879   21877   21880   21880   21887   21883
   21881   21880   21887   21881   21880   21882   21882   21880   21887
   21883   21886   21888   21884   21883   21885   21884   21883   21886
   21884   21883   21887   21885   21883   21886   21885   21883   21887
   21886   21883   21887   21886   21888   21889   21886   21888   21890
   21886   21888   21891   21888   21891   21893   21888   21891   21899
   21888   21891   21892   21889   21888   21891   21889   21888   21890
   21890   21888   21891   21891   21899   21902   21891   21899   21901
   21891   21899   21900   21891   21893   21894   21892   21891   21893
   21892   21891   21899   21893   21894   21895   21893   21894   21896
   21893   21891   21899   21894   21896   21908   21894   21896   21898
   21894   21896   21897   21895   21894   21896   21896   21908   21911
   21896   21908   21910   21896   21908   21909   21897   21896   21908
   21897   21896   21898   21898   21896   21908   21899   21902   21903
   21900   21899   21902   21900   21899   21901   21901   21899   21902
   21902   21903   21904   21902   21903   21905   21903   21905   21945
   21903   21905   21907   21903   21905   21906   21904   21903   21905
   21905   21945   21948   21905   21945   21947   21905   21945   21946
   21906   21905   21945   21906   21905   21907   21907   21905   21945
   21908   21911   21914   21908   21911   21913   21908   21911   21912
   21909   21908   21911   21909   21908   21910   21910   21908   21911
   21911   21914   21917   21911   21914   21916   21911   21914   21915
   21912   21911   21914   21912   21911   21913   21913   21911   21914
   21914   21917   21920   21914   21917   21919   21914   21917   21918
   21915   21914   21917   21915   21914   21916   21916   21914   21917
   21917   21920   21923   21917   21920   21922   21917   21920   21921
   21918   21917   21920   21918   21917   21919   21919   21917   21920
   21920   21923   21926   21920   21923   21925   21920   21923   21924
   21921   21920   21923   21921   21920   21922   21922   21920   21923
   21923   21926   21929   21923   21926   21928   21923   21926   21927
   21924   21923   21926   21924   21923   21925   21925   21923   21926
   21926   21929   21932   21926   21929   21931   21926   21929   21930
   21927   21926   21929   21927   21926   21928   21928   21926   21929
   21929   21932   21935   21929   21932   21934   21929   21932   21933
   21930   21929   21932   21930   21929   21931   21931   21929   21932
   21932   21935   21938   21932   21935   21937   21932   21935   21936
   21933   21932   21935   21933   21932   21934   21934   21932   21935
   21935   21938   21941   21935   21938   21940   21935   21938   21939
   21936   21935   21938   21936   21935   21937   21937   21935   21938
   21938   21941   21944   21938   21941   21943   21938   21941   21942
   21939   21938   21941   21939   21938   21940   21940   21938   21941
   21942   21941   21944   21942   21941   21943   21943   21941   21944
   21945   21948   21951   21945   21948   21950   21945   21948   21949
   21946   21945   21948   21946   21945   21947   21947   21945   21948
   21948   21951   21954   21948   21951   21953   21948   21951   21952
   21949   21948   21951   21949   21948   21950   21950   21948   21951
   21951   21954   21957   21951   21954   21956   21951   21954   21955
   21952   21951   21954   21952   21951   21953   21953   21951   21954
   21954   21957   21960   21954   21957   21959   21954   21957   21958
   21955   21954   21957   21955   21954   21956   21956   21954   21957
   21957   21960   21963   21957   21960   21962   21957   21960   21961
   21958   21957   21960   21958   21957   21959   21959   21957   21960
   21960   21963   21966   21960   21963   21965   21960   21963   21964
   21961   21960   21963   21961   21960   21962   21962   21960   21963
   21963   21966   21969   21963   21966   21968   21963   21966   21967
   21964   21963   21966   21964   21963   21965   21965   21963   21966
   21966   21969   21972   21966   21969   21971   21966   21969   21970
   21967   21966   21969   21967   21966   21968   21968   21966   21969
   21969   21972   21975   21969   21972   21974   21969   21972   21973
   21970   21969   21972   21970   21969   21971   21971   21969   21972
   21972   21975   21978   21972   21975   21977   21972   21975   21976
   21973   21972   21975   21973   21972   21974   21974   21972   21975
   21975   21978   21981   21975   21978   21980   21975   21978   21979
   21976   21975   21978   21976   21975   21977   21977   21975   21978
   21979   21978   21981   21979   21978   21980   21980   21978   21981
   21982   21995   21998   21982   21995   21997   21982   21995   21996
   21982   21991   21994   21982   21991   21993   21982   21991   21992
   21982   21987   21990   21982   21987   21989   21982   21987   21988
   21982   21983   21986   21982   21983   21985   21982   21983   21984
   21983   21982   21995   21983   21982   21991   21983   21982   21987
   21984   21983   21986   21984   21983   21985   21985   21983   21986
   21987   21982   21995   21987   21982   21991   21988   21987   21990
   21988   21987   21989   21989   21987   21990   21991   21982   21995
   21992   21991   21994   21992   21991   21993   21993   21991   21994
   21995   21998   22005   21995   21998   22000   21995   21998   21999
   21996   21995   21998   21996   21995   21997   21997   21995   21998
   21998   22005   22001   21999   21998   22005   21999   21998   22000
   22000   21998   22005   22001   22004   22006   22002   22001   22003
   22002   22001   22004   22002   22001   22005   22003   22001   22004
   22003   22001   22005   22004   22001   22005   22004   22006   22007
   22004   22006   22008   22004   22006   22009   22006   22009   22011
   22006   22009   22017   22006   22009   22010   22007   22006   22009
   22007   22006   22008   22008   22006   22009   22009   22017   22020
   22009   22017   22019   22009   22017   22018   22009   22011   22012
   22010   22009   22011   22010   22009   22017   22011   22012   22013
   22011   22012   22014   22011   22009   22017   22012   22014   22026
   22012   22014   22016   22012   22014   22015   22013   22012   22014
   22014   22026   22029   22014   22026   22028   22014   22026   22027
   22015   22014   22026   22015   22014   22016   22016   22014   22026
   22017   22020   22021   22018   22017   22020   22018   22017   22019
   22019   22017   22020   22020   22021   22022   22020   22021   22023
   22021   22023   22063   22021   22023   22025   22021   22023   22024
   22022   22021   22023   22023   22063   22066   22023   22063   22065
   22023   22063   22064   22024   22023   22063   22024   22023   22025
   22025   22023   22063   22026   22029   22032   22026   22029   22031
   22026   22029   22030   22027   22026   22029   22027   22026   22028
   22028   22026   22029   22029   22032   22035   22029   22032   22034
   22029   22032   22033   22030   22029   22032   22030   22029   22031
   22031   22029   22032   22032   22035   22038   22032   22035   22037
   22032   22035   22036   22033   22032   22035   22033   22032   22034
   22034   22032   22035   22035   22038   22041   22035   22038   22040
   22035   22038   22039   22036   22035   22038   22036   22035   22037
   22037   22035   22038   22038   22041   22044   22038   22041   22043
   22038   22041   22042   22039   22038   22041   22039   22038   22040
   22040   22038   22041   22041   22044   22047   22041   22044   22046
   22041   22044   22045   22042   22041   22044   22042   22041   22043
   22043   22041   22044   22044   22047   22050   22044   22047   22049
   22044   22047   22048   22045   22044   22047   22045   22044   22046
   22046   22044   22047   22047   22050   22053   22047   22050   22052
   22047   22050   22051   22048   22047   22050   22048   22047   22049
   22049   22047   22050   22050   22053   22056   22050   22053   22055
   22050   22053   22054   22051   22050   22053   22051   22050   22052
   22052   22050   22053   22053   22056   22059   22053   22056   22058
   22053   22056   22057   22054   22053   22056   22054   22053   22055
   22055   22053   22056   22056   22059   22062   22056   22059   22061
   22056   22059   22060   22057   22056   22059   22057   22056   22058
   22058   22056   22059   22060   22059   22062   22060   22059   22061
   22061   22059   22062   22063   22066   22069   22063   22066   22068
   22063   22066   22067   22064   22063   22066   22064   22063   22065
   22065   22063   22066   22066   22069   22072   22066   22069   22071
   22066   22069   22070   22067   22066   22069   22067   22066   22068
   22068   22066   22069   22069   22072   22075   22069   22072   22074
   22069   22072   22073   22070   22069   22072   22070   22069   22071
   22071   22069   22072   22072   22075   22078   22072   22075   22077
   22072   22075   22076   22073   22072   22075   22073   22072   22074
   22074   22072   22075   22075   22078   22081   22075   22078   22080
   22075   22078   22079   22076   22075   22078   22076   22075   22077
   22077   22075   22078   22078   22081   22084   22078   22081   22083
   22078   22081   22082   22079   22078   22081   22079   22078   22080
   22080   22078   22081   22081   22084   22087   22081   22084   22086
   22081   22084   22085   22082   22081   22084   22082   22081   22083
   22083   22081   22084   22084   22087   22090   22084   22087   22089
   22084   22087   22088   22085   22084   22087   22085   22084   22086
   22086   22084   22087   22087   22090   22093   22087   22090   22092
   22087   22090   22091   22088   22087   22090   22088   22087   22089
   22089   22087   22090   22090   22093   22096   22090   22093   22095
   22090   22093   22094   22091   22090   22093   22091   22090   22092
   22092   22090   22093   22093   22096   22099   22093   22096   22098
   22093   22096   22097   22094   22093   22096   22094   22093   22095
   22095   22093   22096   22097   22096   22099   22097   22096   22098
   22098   22096   22099   22100   22113   22116   22100   22113   22115
   22100   22113   22114   22100   22109   22112   22100   22109   22111
   22100   22109   22110   22100   22105   22108   22100   22105   22107
   22100   22105   22106   22100   22101   22104   22100   22101   22103
   22100   22101   22102   22101   22100   22113   22101   22100   22109
   22101   22100   22105   22102   22101   22104   22102   22101   22103
   22103   22101   22104   22105   22100   22113   22105   22100   22109
   22106   22105   22108   22106   22105   22107   22107   22105   22108
   22109   22100   22113   22110   22109   22112   22110   22109   22111
   22111   22109   22112   22113   22116   22123   22113   22116   22118
   22113   22116   22117   22114   22113   22116   22114   22113   22115
   22115   22113   22116   22116   22123   22119   22117   22116   22123
   22117   22116   22118   22118   22116   22123   22119   22122   22124
   22120   22119   22121   22120   22119   22122   22120   22119   22123
   22121   22119   22122   22121   22119   22123   22122   22119   22123
   22122   22124   22125   22122   22124   22126   22122   22124   22127
   22124   22127   22129   22124   22127   22135   22124   22127   22128
   22125   22124   22127   22125   22124   22126   22126   22124   22127
   22127   22135   22138   22127   22135   22137   22127   22135   22136
   22127   22129   22130   22128   22127   22129   22128   22127   22135
   22129   22130   22131   22129   22130   22132   22129   22127   22135
   22130   22132   22144   22130   22132   22134   22130   22132   22133
   22131   22130   22132   22132   22144   22147   22132   22144   22146
   22132   22144   22145   22133   22132   22144   22133   22132   22134
   22134   22132   22144   22135   22138   22139   22136   22135   22138
   22136   22135   22137   22137   22135   22138   22138   22139   22140
   22138   22139   22141   22139   22141   22181   22139   22141   22143
   22139   22141   22142   22140   22139   22141   22141   22181   22184
   22141   22181   22183   22141   22181   22182   22142   22141   22181
   22142   22141   22143   22143   22141   22181   22144   22147   22150
   22144   22147   22149   22144   22147   22148   22145   22144   22147
   22145   22144   22146   22146   22144   22147   22147   22150   22153
   22147   22150   22152   22147   22150   22151   22148   22147   22150
   22148   22147   22149   22149   22147   22150   22150   22153   22156
   22150   22153   22155   22150   22153   22154   22151   22150   22153
   22151   22150   22152   22152   22150   22153   22153   22156   22159
   22153   22156   22158   22153   22156   22157   22154   22153   22156
   22154   22153   22155   22155   22153   22156   22156   22159   22162
   22156   22159   22161   22156   22159   22160   22157   22156   22159
   22157   22156   22158   22158   22156   22159   22159   22162   22165
   22159   22162   22164   22159   22162   22163   22160   22159   22162
   22160   22159   22161   22161   22159   22162   22162   22165   22168
   22162   22165   22167   22162   22165   22166   22163   22162   22165
   22163   22162   22164   22164   22162   22165   22165   22168   22171
   22165   22168   22170   22165   22168   22169   22166   22165   22168
   22166   22165   22167   22167   22165   22168   22168   22171   22174
   22168   22171   22173   22168   22171   22172   22169   22168   22171
   22169   22168   22170   22170   22168   22171   22171   22174   22177
   22171   22174   22176   22171   22174   22175   22172   22171   22174
   22172   22171   22173   22173   22171   22174   22174   22177   22180
   22174   22177   22179   22174   22177   22178   22175   22174   22177
   22175   22174   22176   22176   22174   22177   22178   22177   22180
   22178   22177   22179   22179   22177   22180   22181   22184   22187
   22181   22184   22186   22181   22184   22185   22182   22181   22184
   22182   22181   22183   22183   22181   22184   22184   22187   22190
   22184   22187   22189   22184   22187   22188   22185   22184   22187
   22185   22184   22186   22186   22184   22187   22187   22190   22193
   22187   22190   22192   22187   22190   22191   22188   22187   22190
   22188   22187   22189   22189   22187   22190   22190   22193   22196
   22190   22193   22195   22190   22193   22194   22191   22190   22193
   22191   22190   22192   22192   22190   22193   22193   22196   22199
   22193   22196   22198   22193   22196   22197   22194   22193   22196
   22194   22193   22195   22195   22193   22196   22196   22199   22202
   22196   22199   22201   22196   22199   22200   22197   22196   22199
   22197   22196   22198   22198   22196   22199   22199   22202   22205
   22199   22202   22204   22199   22202   22203   22200   22199   22202
   22200   22199   22201   22201   22199   22202   22202   22205   22208
   22202   22205   22207   22202   22205   22206   22203   22202   22205
   22203   22202   22204   22204   22202   22205   22205   22208   22211
   22205   22208   22210   22205   22208   22209   22206   22205   22208
   22206   22205   22207   22207   22205   22208   22208   22211   22214
   22208   22211   22213   22208   22211   22212   22209   22208   22211
   22209   22208   22210   22210   22208   22211   22211   22214   22217
   22211   22214   22216   22211   22214   22215   22212   22211   22214
   22212   22211   22213   22213   22211   22214   22215   22214   22217
   22215   22214   22216   22216   22214   22217   22218   22231   22234
   22218   22231   22233   22218   22231   22232   22218   22227   22230
   22218   22227   22229   22218   22227   22228   22218   22223   22226
   22218   22223   22225   22218   22223   22224   22218   22219   22222
   22218   22219   22221   22218   22219   22220   22219   22218   22231
   22219   22218   22227   22219   22218   22223   22220   22219   22222
   22220   22219   22221   22221   22219   22222   22223   22218   22231
   22223   22218   22227   22224   22223   22226   22224   22223   22225
   22225   22223   22226   22227   22218   22231   22228   22227   22230
   22228   22227   22229   22229   22227   22230   22231   22234   22241
   22231   22234   22236   22231   22234   22235   22232   22231   22234
   22232   22231   22233   22233   22231   22234   22234   22241   22237
   22235   22234   22241   22235   22234   22236   22236   22234   22241
   22237   22240   22242   22238   22237   22239   22238   22237   22240
   22238   22237   22241   22239   22237   22240   22239   22237   22241
   22240   22237   22241   22240   22242   22243   22240   22242   22244
   22240   22242   22245   22242   22245   22247   22242   22245   22253
   22242   22245   22246   22243   22242   22245   22243   22242   22244
   22244   22242   22245   22245   22253   22256   22245   22253   22255
   22245   22253   22254   22245   22247   22248   22246   22245   22247
   22246   22245   22253   22247   22248   22249   22247   22248   22250
   22247   22245   22253   22248   22250   22262   22248   22250   22252
   22248   22250   22251   22249   22248   22250   22250   22262   22265
   22250   22262   22264   22250   22262   22263   22251   22250   22262
   22251   22250   22252   22252   22250   22262   22253   22256   22257
   22254   22253   22256   22254   22253   22255   22255   22253   22256
   22256   22257   22258   22256   22257   22259   22257   22259   22299
   22257   22259   22261   22257   22259   22260   22258   22257   22259
   22259   22299   22302   22259   22299   22301   22259   22299   22300
   22260   22259   22299   22260   22259   22261   22261   22259   22299
   22262   22265   22268   22262   22265   22267   22262   22265   22266
   22263   22262   22265   22263   22262   22264   22264   22262   22265
   22265   22268   22271   22265   22268   22270   22265   22268   22269
   22266   22265   22268   22266   22265   22267   22267   22265   22268
   22268   22271   22274   22268   22271   22273   22268   22271   22272
   22269   22268   22271   22269   22268   22270   22270   22268   22271
   22271   22274   22277   22271   22274   22276   22271   22274   22275
   22272   22271   22274   22272   22271   22273   22273   22271   22274
   22274   22277   22280   22274   22277   22279   22274   22277   22278
   22275   22274   22277   22275   22274   22276   22276   22274   22277
   22277   22280   22283   22277   22280   22282   22277   22280   22281
   22278   22277   22280   22278   22277   22279   22279   22277   22280
   22280   22283   22286   22280   22283   22285   22280   22283   22284
   22281   22280   22283   22281   22280   22282   22282   22280   22283
   22283   22286   22289   22283   22286   22288   22283   22286   22287
   22284   22283   22286   22284   22283   22285   22285   22283   22286
   22286   22289   22292   22286   22289   22291   22286   22289   22290
   22287   22286   22289   22287   22286   22288   22288   22286   22289
   22289   22292   22295   22289   22292   22294   22289   22292   22293
   22290   22289   22292   22290   22289   22291   22291   22289   22292
   22292   22295   22298   22292   22295   22297   22292   22295   22296
   22293   22292   22295   22293   22292   22294   22294   22292   22295
   22296   22295   22298   22296   22295   22297   22297   22295   22298
   22299   22302   22305   22299   22302   22304   22299   22302   22303
   22300   22299   22302   22300   22299   22301   22301   22299   22302
   22302   22305   22308   22302   22305   22307   22302   22305   22306
   22303   22302   22305   22303   22302   22304   22304   22302   22305
   22305   22308   22311   22305   22308   22310   22305   22308   22309
   22306   22305   22308   22306   22305   22307   22307   22305   22308
   22308   22311   22314   22308   22311   22313   22308   22311   22312
   22309   22308   22311   22309   22308   22310   22310   22308   22311
   22311   22314   22317   22311   22314   22316   22311   22314   22315
   22312   22311   22314   22312   22311   22313   22313   22311   22314
   22314   22317   22320   22314   22317   22319   22314   22317   22318
   22315   22314   22317   22315   22314   22316   22316   22314   22317
   22317   22320   22323   22317   22320   22322   22317   22320   22321
   22318   22317   22320   22318   22317   22319   22319   22317   22320
   22320   22323   22326   22320   22323   22325   22320   22323   22324
   22321   22320   22323   22321   22320   22322   22322   22320   22323
   22323   22326   22329   22323   22326   22328   22323   22326   22327
   22324   22323   22326   22324   22323   22325   22325   22323   22326
   22326   22329   22332   22326   22329   22331   22326   22329   22330
   22327   22326   22329   22327   22326   22328   22328   22326   22329
   22329   22332   22335   22329   22332   22334   22329   22332   22333
   22330   22329   22332   22330   22329   22331   22331   22329   22332
   22333   22332   22335   22333   22332   22334   22334   22332   22335
   22336   22349   22352   22336   22349   22351   22336   22349   22350
   22336   22345   22348   22336   22345   22347   22336   22345   22346
   22336   22341   22344   22336   22341   22343   22336   22341   22342
   22336   22337   22340   22336   22337   22339   22336   22337   22338
   22337   22336   22349   22337   22336   22345   22337   22336   22341
   22338   22337   22340   22338   22337   22339   22339   22337   22340
   22341   22336   22349   22341   22336   22345   22342   22341   22344
   22342   22341   22343   22343   22341   22344   22345   22336   22349
   22346   22345   22348   22346   22345   22347   22347   22345   22348
   22349   22352   22359   22349   22352   22354   22349   22352   22353
   22350   22349   22352   22350   22349   22351   22351   22349   22352
   22352   22359   22355   22353   22352   22359   22353   22352   22354
   22354   22352   22359   22355   22358   22360   22356   22355   22357
   22356   22355   22358   22356   22355   22359   22357   22355   22358
   22357   22355   22359   22358   22355   22359   22358   22360   22361
   22358   22360   22362   22358   22360   22363   22360   22363   22365
   22360   22363   22371   22360   22363   22364   22361   22360   22363
   22361   22360   22362   22362   22360   22363   22363   22371   22374
   22363   22371   22373   22363   22371   22372   22363   22365   22366
   22364   22363   22365   22364   22363   22371   22365   22366   22367
   22365   22366   22368   22365   22363   22371   22366   22368   22380
   22366   22368   22370   22366   22368   22369   22367   22366   22368
   22368   22380   22383   22368   22380   22382   22368   22380   22381
   22369   22368   22380   22369   22368   22370   22370   22368   22380
   22371   22374   22375   22372   22371   22374   22372   22371   22373
   22373   22371   22374   22374   22375   22376   22374   22375   22377
   22375   22377   22417   22375   22377   22379   22375   22377   22378
   22376   22375   22377   22377   22417   22420   22377   22417   22419
   22377   22417   22418   22378   22377   22417   22378   22377   22379
   22379   22377   22417   22380   22383   22386   22380   22383   22385
   22380   22383   22384   22381   22380   22383   22381   22380   22382
   22382   22380   22383   22383   22386   22389   22383   22386   22388
   22383   22386   22387   22384   22383   22386   22384   22383   22385
   22385   22383   22386   22386   22389   22392   22386   22389   22391
   22386   22389   22390   22387   22386   22389   22387   22386   22388
   22388   22386   22389   22389   22392   22395   22389   22392   22394
   22389   22392   22393   22390   22389   22392   22390   22389   22391
   22391   22389   22392   22392   22395   22398   22392   22395   22397
   22392   22395   22396   22393   22392   22395   22393   22392   22394
   22394   22392   22395   22395   22398   22401   22395   22398   22400
   22395   22398   22399   22396   22395   22398   22396   22395   22397
   22397   22395   22398   22398   22401   22404   22398   22401   22403
   22398   22401   22402   22399   22398   22401   22399   22398   22400
   22400   22398   22401   22401   22404   22407   22401   22404   22406
   22401   22404   22405   22402   22401   22404   22402   22401   22403
   22403   22401   22404   22404   22407   22410   22404   22407   22409
   22404   22407   22408   22405   22404   22407   22405   22404   22406
   22406   22404   22407   22407   22410   22413   22407   22410   22412
   22407   22410   22411   22408   22407   22410   22408   22407   22409
   22409   22407   22410   22410   22413   22416   22410   22413   22415
   22410   22413   22414   22411   22410   22413   22411   22410   22412
   22412   22410   22413   22414   22413   22416   22414   22413   22415
   22415   22413   22416   22417   22420   22423   22417   22420   22422
   22417   22420   22421   22418   22417   22420   22418   22417   22419
   22419   22417   22420   22420   22423   22426   22420   22423   22425
   22420   22423   22424   22421   22420   22423   22421   22420   22422
   22422   22420   22423   22423   22426   22429   22423   22426   22428
   22423   22426   22427   22424   22423   22426   22424   22423   22425
   22425   22423   22426   22426   22429   22432   22426   22429   22431
   22426   22429   22430   22427   22426   22429   22427   22426   22428
   22428   22426   22429   22429   22432   22435   22429   22432   22434
   22429   22432   22433   22430   22429   22432   22430   22429   22431
   22431   22429   22432   22432   22435   22438   22432   22435   22437
   22432   22435   22436   22433   22432   22435   22433   22432   22434
   22434   22432   22435   22435   22438   22441   22435   22438   22440
   22435   22438   22439   22436   22435   22438   22436   22435   22437
   22437   22435   22438   22438   22441   22444   22438   22441   22443
   22438   22441   22442   22439   22438   22441   22439   22438   22440
   22440   22438   22441   22441   22444   22447   22441   22444   22446
   22441   22444   22445   22442   22441   22444   22442   22441   22443
   22443   22441   22444   22444   22447   22450   22444   22447   22449
   22444   22447   22448   22445   22444   22447   22445   22444   22446
   22446   22444   22447   22447   22450   22453   22447   22450   22452
   22447   22450   22451   22448   22447   22450   22448   22447   22449
   22449   22447   22450   22451   22450   22453   22451   22450   22452
   22452   22450   22453   22454   22467   22470   22454   22467   22469
   22454   22467   22468   22454   22463   22466   22454   22463   22465
   22454   22463   22464   22454   22459   22462   22454   22459   22461
   22454   22459   22460   22454   22455   22458   22454   22455   22457
   22454   22455   22456   22455   22454   22467   22455   22454   22463
   22455   22454   22459   22456   22455   22458   22456   22455   22457
   22457   22455   22458   22459   22454   22467   22459   22454   22463
   22460   22459   22462   22460   22459   22461   22461   22459   22462
   22463   22454   22467   22464   22463   22466   22464   22463   22465
   22465   22463   22466   22467   22470   22477   22467   22470   22472
   22467   22470   22471   22468   22467   22470   22468   22467   22469
   22469   22467   22470   22470   22477   22473   22471   22470   22477
   22471   22470   22472   22472   22470   22477   22473   22476   22478
   22474   22473   22475   22474   22473   22476   22474   22473   22477
   22475   22473   22476   22475   22473   22477   22476   22473   22477
   22476   22478   22479   22476   22478   22480   22476   22478   22481
   22478   22481   22483   22478   22481   22489   22478   22481   22482
   22479   22478   22481   22479   22478   22480   22480   22478   22481
   22481   22489   22492   22481   22489   22491   22481   22489   22490
   22481   22483   22484   22482   22481   22483   22482   22481   22489
   22483   22484   22485   22483   22484   22486   22483   22481   22489
   22484   22486   22498   22484   22486   22488   22484   22486   22487
   22485   22484   22486   22486   22498   22501   22486   22498   22500
   22486   22498   22499   22487   22486   22498   22487   22486   22488
   22488   22486   22498   22489   22492   22493   22490   22489   22492
   22490   22489   22491   22491   22489   22492   22492   22493   22494
   22492   22493   22495   22493   22495   22535   22493   22495   22497
   22493   22495   22496   22494   22493   22495   22495   22535   22538
   22495   22535   22537   22495   22535   22536   22496   22495   22535
   22496   22495   22497   22497   22495   22535   22498   22501   22504
   22498   22501   22503   22498   22501   22502   22499   22498   22501
   22499   22498   22500   22500   22498   22501   22501   22504   22507
   22501   22504   22506   22501   22504   22505   22502   22501   22504
   22502   22501   22503   22503   22501   22504   22504   22507   22510
   22504   22507   22509   22504   22507   22508   22505   22504   22507
   22505   22504   22506   22506   22504   22507   22507   22510   22513
   22507   22510   22512   22507   22510   22511   22508   22507   22510
   22508   22507   22509   22509   22507   22510   22510   22513   22516
   22510   22513   22515   22510   22513   22514   22511   22510   22513
   22511   22510   22512   22512   22510   22513   22513   22516   22519
   22513   22516   22518   22513   22516   22517   22514   22513   22516
   22514   22513   22515   22515   22513   22516   22516   22519   22522
   22516   22519   22521   22516   22519   22520   22517   22516   22519
   22517   22516   22518   22518   22516   22519   22519   22522   22525
   22519   22522   22524   22519   22522   22523   22520   22519   22522
   22520   22519   22521   22521   22519   22522   22522   22525   22528
   22522   22525   22527   22522   22525   22526   22523   22522   22525
   22523   22522   22524   22524   22522   22525   22525   22528   22531
   22525   22528   22530   22525   22528   22529   22526   22525   22528
   22526   22525   22527   22527   22525   22528   22528   22531   22534
   22528   22531   22533   22528   22531   22532   22529   22528   22531
   22529   22528   22530   22530   22528   22531   22532   22531   22534
   22532   22531   22533   22533   22531   22534   22535   22538   22541
   22535   22538   22540   22535   22538   22539   22536   22535   22538
   22536   22535   22537   22537   22535   22538   22538   22541   22544
   22538   22541   22543   22538   22541   22542   22539   22538   22541
   22539   22538   22540   22540   22538   22541   22541   22544   22547
   22541   22544   22546   22541   22544   22545   22542   22541   22544
   22542   22541   22543   22543   22541   22544   22544   22547   22550
   22544   22547   22549   22544   22547   22548   22545   22544   22547
   22545   22544   22546   22546   22544   22547   22547   22550   22553
   22547   22550   22552   22547   22550   22551   22548   22547   22550
   22548   22547   22549   22549   22547   22550   22550   22553   22556
   22550   22553   22555   22550   22553   22554   22551   22550   22553
   22551   22550   22552   22552   22550   22553   22553   22556   22559
   22553   22556   22558   22553   22556   22557   22554   22553   22556
   22554   22553   22555   22555   22553   22556   22556   22559   22562
   22556   22559   22561   22556   22559   22560   22557   22556   22559
   22557   22556   22558   22558   22556   22559   22559   22562   22565
   22559   22562   22564   22559   22562   22563   22560   22559   22562
   22560   22559   22561   22561   22559   22562   22562   22565   22568
   22562   22565   22567   22562   22565   22566   22563   22562   22565
   22563   22562   22564   22564   22562   22565   22565   22568   22571
   22565   22568   22570   22565   22568   22569   22566   22565   22568
   22566   22565   22567   22567   22565   22568   22569   22568   22571
   22569   22568   22570   22570   22568   22571   22572   22585   22588
   22572   22585   22587   22572   22585   22586   22572   22581   22584
   22572   22581   22583   22572   22581   22582   22572   22577   22580
   22572   22577   22579   22572   22577   22578   22572   22573   22576
   22572   22573   22575   22572   22573   22574   22573   22572   22585
   22573   22572   22581   22573   22572   22577   22574   22573   22576
   22574   22573   22575   22575   22573   22576   22577   22572   22585
   22577   22572   22581   22578   22577   22580   22578   22577   22579
   22579   22577   22580   22581   22572   22585   22582   22581   22584
   22582   22581   22583   22583   22581   22584   22585   22588   22595
   22585   22588   22590   22585   22588   22589   22586   22585   22588
   22586   22585   22587   22587   22585   22588   22588   22595   22591
   22589   22588   22595   22589   22588   22590   22590   22588   22595
   22591   22594   22596   22592   22591   22593   22592   22591   22594
   22592   22591   22595   22593   22591   22594   22593   22591   22595
   22594   22591   22595   22594   22596   22597   22594   22596   22598
   22594   22596   22599   22596   22599   22601   22596   22599   22607
   22596   22599   22600   22597   22596   22599   22597   22596   22598
   22598   22596   22599   22599   22607   22610   22599   22607   22609
   22599   22607   22608   22599   22601   22602   22600   22599   22601
   22600   22599   22607   22601   22602   22603   22601   22602   22604
   22601   22599   22607   22602   22604   22616   22602   22604   22606
   22602   22604   22605   22603   22602   22604   22604   22616   22619
   22604   22616   22618   22604   22616   22617   22605   22604   22616
   22605   22604   22606   22606   22604   22616   22607   22610   22611
   22608   22607   22610   22608   22607   22609   22609   22607   22610
   22610   22611   22612   22610   22611   22613   22611   22613   22653
   22611   22613   22615   22611   22613   22614   22612   22611   22613
   22613   22653   22656   22613   22653   22655   22613   22653   22654
   22614   22613   22653   22614   22613   22615   22615   22613   22653
   22616   22619   22622   22616   22619   22621   22616   22619   22620
   22617   22616   22619   22617   22616   22618   22618   22616   22619
   22619   22622   22625   22619   22622   22624   22619   22622   22623
   22620   22619   22622   22620   22619   22621   22621   22619   22622
   22622   22625   22628   22622   22625   22627   22622   22625   22626
   22623   22622   22625   22623   22622   22624   22624   22622   22625
   22625   22628   22631   22625   22628   22630   22625   22628   22629
   22626   22625   22628   22626   22625   22627   22627   22625   22628
   22628   22631   22634   22628   22631   22633   22628   22631   22632
   22629   22628   22631   22629   22628   22630   22630   22628   22631
   22631   22634   22637   22631   22634   22636   22631   22634   22635
   22632   22631   22634   22632   22631   22633   22633   22631   22634
   22634   22637   22640   22634   22637   22639   22634   22637   22638
   22635   22634   22637   22635   22634   22636   22636   22634   22637
   22637   22640   22643   22637   22640   22642   22637   22640   22641
   22638   22637   22640   22638   22637   22639   22639   22637   22640
   22640   22643   22646   22640   22643   22645   22640   22643   22644
   22641   22640   22643   22641   22640   22642   22642   22640   22643
   22643   22646   22649   22643   22646   22648   22643   22646   22647
   22644   22643   22646   22644   22643   22645   22645   22643   22646
   22646   22649   22652   22646   22649   22651   22646   22649   22650
   22647   22646   22649   22647   22646   22648   22648   22646   22649
   22650   22649   22652   22650   22649   22651   22651   22649   22652
   22653   22656   22659   22653   22656   22658   22653   22656   22657
   22654   22653   22656   22654   22653   22655   22655   22653   22656
   22656   22659   22662   22656   22659   22661   22656   22659   22660
   22657   22656   22659   22657   22656   22658   22658   22656   22659
   22659   22662   22665   22659   22662   22664   22659   22662   22663
   22660   22659   22662   22660   22659   22661   22661   22659   22662
   22662   22665   22668   22662   22665   22667   22662   22665   22666
   22663   22662   22665   22663   22662   22664   22664   22662   22665
   22665   22668   22671   22665   22668   22670   22665   22668   22669
   22666   22665   22668   22666   22665   22667   22667   22665   22668
   22668   22671   22674   22668   22671   22673   22668   22671   22672
   22669   22668   22671   22669   22668   22670   22670   22668   22671
   22671   22674   22677   22671   22674   22676   22671   22674   22675
   22672   22671   22674   22672   22671   22673   22673   22671   22674
   22674   22677   22680   22674   22677   22679   22674   22677   22678
   22675   22674   22677   22675   22674   22676   22676   22674   22677
   22677   22680   22683   22677   22680   22682   22677   22680   22681
   22678   22677   22680   22678   22677   22679   22679   22677   22680
   22680   22683   22686   22680   22683   22685   22680   22683   22684
   22681   22680   22683   22681   22680   22682   22682   22680   22683
   22683   22686   22689   22683   22686   22688   22683   22686   22687
   22684   22683   22686   22684   22683   22685   22685   22683   22686
   22687   22686   22689   22687   22686   22688   22688   22686   22689
   22690   22703   22706   22690   22703   22705   22690   22703   22704
   22690   22699   22702   22690   22699   22701   22690   22699   22700
   22690   22695   22698   22690   22695   22697   22690   22695   22696
   22690   22691   22694   22690   22691   22693   22690   22691   22692
   22691   22690   22703   22691   22690   22699   22691   22690   22695
   22692   22691   22694   22692   22691   22693   22693   22691   22694
   22695   22690   22703   22695   22690   22699   22696   22695   22698
   22696   22695   22697   22697   22695   22698   22699   22690   22703
   22700   22699   22702   22700   22699   22701   22701   22699   22702
   22703   22706   22713   22703   22706   22708   22703   22706   22707
   22704   22703   22706   22704   22703   22705   22705   22703   22706
   22706   22713   22709   22707   22706   22713   22707   22706   22708
   22708   22706   22713   22709   22712   22714   22710   22709   22711
   22710   22709   22712   22710   22709   22713   22711   22709   22712
   22711   22709   22713   22712   22709   22713   22712   22714   22715
   22712   22714   22716   22712   22714   22717   22714   22717   22719
   22714   22717   22725   22714   22717   22718   22715   22714   22717
   22715   22714   22716   22716   22714   22717   22717   22725   22728
   22717   22725   22727   22717   22725   22726   22717   22719   22720
   22718   22717   22719   22718   22717   22725   22719   22720   22721
   22719   22720   22722   22719   22717   22725   22720   22722   22734
   22720   22722   22724   22720   22722   22723   22721   22720   22722
   22722   22734   22737   22722   22734   22736   22722   22734   22735
   22723   22722   22734   22723   22722   22724   22724   22722   22734
   22725   22728   22729   22726   22725   22728   22726   22725   22727
   22727   22725   22728   22728   22729   22730   22728   22729   22731
   22729   22731   22771   22729   22731   22733   22729   22731   22732
   22730   22729   22731   22731   22771   22774   22731   22771   22773
   22731   22771   22772   22732   22731   22771   22732   22731   22733
   22733   22731   22771   22734   22737   22740   22734   22737   22739
   22734   22737   22738   22735   22734   22737   22735   22734   22736
   22736   22734   22737   22737   22740   22743   22737   22740   22742
   22737   22740   22741   22738   22737   22740   22738   22737   22739
   22739   22737   22740   22740   22743   22746   22740   22743   22745
   22740   22743   22744   22741   22740   22743   22741   22740   22742
   22742   22740   22743   22743   22746   22749   22743   22746   22748
   22743   22746   22747   22744   22743   22746   22744   22743   22745
   22745   22743   22746   22746   22749   22752   22746   22749   22751
   22746   22749   22750   22747   22746   22749   22747   22746   22748
   22748   22746   22749   22749   22752   22755   22749   22752   22754
   22749   22752   22753   22750   22749   22752   22750   22749   22751
   22751   22749   22752   22752   22755   22758   22752   22755   22757
   22752   22755   22756   22753   22752   22755   22753   22752   22754
   22754   22752   22755   22755   22758   22761   22755   22758   22760
   22755   22758   22759   22756   22755   22758   22756   22755   22757
   22757   22755   22758   22758   22761   22764   22758   22761   22763
   22758   22761   22762   22759   22758   22761   22759   22758   22760
   22760   22758   22761   22761   22764   22767   22761   22764   22766
   22761   22764   22765   22762   22761   22764   22762   22761   22763
   22763   22761   22764   22764   22767   22770   22764   22767   22769
   22764   22767   22768   22765   22764   22767   22765   22764   22766
   22766   22764   22767   22768   22767   22770   22768   22767   22769
   22769   22767   22770   22771   22774   22777   22771   22774   22776
   22771   22774   22775   22772   22771   22774   22772   22771   22773
   22773   22771   22774   22774   22777   22780   22774   22777   22779
   22774   22777   22778   22775   22774   22777   22775   22774   22776
   22776   22774   22777   22777   22780   22783   22777   22780   22782
   22777   22780   22781   22778   22777   22780   22778   22777   22779
   22779   22777   22780   22780   22783   22786   22780   22783   22785
   22780   22783   22784   22781   22780   22783   22781   22780   22782
   22782   22780   22783   22783   22786   22789   22783   22786   22788
   22783   22786   22787   22784   22783   22786   22784   22783   22785
   22785   22783   22786   22786   22789   22792   22786   22789   22791
   22786   22789   22790   22787   22786   22789   22787   22786   22788
   22788   22786   22789   22789   22792   22795   22789   22792   22794
   22789   22792   22793   22790   22789   22792   22790   22789   22791
   22791   22789   22792   22792   22795   22798   22792   22795   22797
   22792   22795   22796   22793   22792   22795   22793   22792   22794
   22794   22792   22795   22795   22798   22801   22795   22798   22800
   22795   22798   22799   22796   22795   22798   22796   22795   22797
   22797   22795   22798   22798   22801   22804   22798   22801   22803
   22798   22801   22802   22799   22798   22801   22799   22798   22800
   22800   22798   22801   22801   22804   22807   22801   22804   22806
   22801   22804   22805   22802   22801   22804   22802   22801   22803
   22803   22801   22804   22805   22804   22807   22805   22804   22806
   22806   22804   22807   22808   22821   22824   22808   22821   22823
   22808   22821   22822   22808   22817   22820   22808   22817   22819
   22808   22817   22818   22808   22813   22816   22808   22813   22815
   22808   22813   22814   22808   22809   22812   22808   22809   22811
   22808   22809   22810   22809   22808   22821   22809   22808   22817
   22809   22808   22813   22810   22809   22812   22810   22809   22811
   22811   22809   22812   22813   22808   22821   22813   22808   22817
   22814   22813   22816   22814   22813   22815   22815   22813   22816
   22817   22808   22821   22818   22817   22820   22818   22817   22819
   22819   22817   22820   22821   22824   22831   22821   22824   22826
   22821   22824   22825   22822   22821   22824   22822   22821   22823
   22823   22821   22824   22824   22831   22827   22825   22824   22831
   22825   22824   22826   22826   22824   22831   22827   22830   22832
   22828   22827   22829   22828   22827   22830   22828   22827   22831
   22829   22827   22830   22829   22827   22831   22830   22827   22831
   22830   22832   22833   22830   22832   22834   22830   22832   22835
   22832   22835   22837   22832   22835   22843   22832   22835   22836
   22833   22832   22835   22833   22832   22834   22834   22832   22835
   22835   22843   22846   22835   22843   22845   22835   22843   22844
   22835   22837   22838   22836   22835   22837   22836   22835   22843
   22837   22838   22839   22837   22838   22840   22837   22835   22843
   22838   22840   22852   22838   22840   22842   22838   22840   22841
   22839   22838   22840   22840   22852   22855   22840   22852   22854
   22840   22852   22853   22841   22840   22852   22841   22840   22842
   22842   22840   22852   22843   22846   22847   22844   22843   22846
   22844   22843   22845   22845   22843   22846   22846   22847   22848
   22846   22847   22849   22847   22849   22889   22847   22849   22851
   22847   22849   22850   22848   22847   22849   22849   22889   22892
   22849   22889   22891   22849   22889   22890   22850   22849   22889
   22850   22849   22851   22851   22849   22889   22852   22855   22858
   22852   22855   22857   22852   22855   22856   22853   22852   22855
   22853   22852   22854   22854   22852   22855   22855   22858   22861
   22855   22858   22860   22855   22858   22859   22856   22855   22858
   22856   22855   22857   22857   22855   22858   22858   22861   22864
   22858   22861   22863   22858   22861   22862   22859   22858   22861
   22859   22858   22860   22860   22858   22861   22861   22864   22867
   22861   22864   22866   22861   22864   22865   22862   22861   22864
   22862   22861   22863   22863   22861   22864   22864   22867   22870
   22864   22867   22869   22864   22867   22868   22865   22864   22867
   22865   22864   22866   22866   22864   22867   22867   22870   22873
   22867   22870   22872   22867   22870   22871   22868   22867   22870
   22868   22867   22869   22869   22867   22870   22870   22873   22876
   22870   22873   22875   22870   22873   22874   22871   22870   22873
   22871   22870   22872   22872   22870   22873   22873   22876   22879
   22873   22876   22878   22873   22876   22877   22874   22873   22876
   22874   22873   22875   22875   22873   22876   22876   22879   22882
   22876   22879   22881   22876   22879   22880   22877   22876   22879
   22877   22876   22878   22878   22876   22879   22879   22882   22885
   22879   22882   22884   22879   22882   22883   22880   22879   22882
   22880   22879   22881   22881   22879   22882   22882   22885   22888
   22882   22885   22887   22882   22885   22886   22883   22882   22885
   22883   22882   22884   22884   22882   22885   22886   22885   22888
   22886   22885   22887   22887   22885   22888   22889   22892   22895
   22889   22892   22894   22889   22892   22893   22890   22889   22892
   22890   22889   22891   22891   22889   22892   22892   22895   22898
   22892   22895   22897   22892   22895   22896   22893   22892   22895
   22893   22892   22894   22894   22892   22895   22895   22898   22901
   22895   22898   22900   22895   22898   22899   22896   22895   22898
   22896   22895   22897   22897   22895   22898   22898   22901   22904
   22898   22901   22903   22898   22901   22902   22899   22898   22901
   22899   22898   22900   22900   22898   22901   22901   22904   22907
   22901   22904   22906   22901   22904   22905   22902   22901   22904
   22902   22901   22903   22903   22901   22904   22904   22907   22910
   22904   22907   22909   22904   22907   22908   22905   22904   22907
   22905   22904   22906   22906   22904   22907   22907   22910   22913
   22907   22910   22912   22907   22910   22911   22908   22907   22910
   22908   22907   22909   22909   22907   22910   22910   22913   22916
   22910   22913   22915   22910   22913   22914   22911   22910   22913
   22911   22910   22912   22912   22910   22913   22913   22916   22919
   22913   22916   22918   22913   22916   22917   22914   22913   22916
   22914   22913   22915   22915   22913   22916   22916   22919   22922
   22916   22919   22921   22916   22919   22920   22917   22916   22919
   22917   22916   22918   22918   22916   22919   22919   22922   22925
   22919   22922   22924   22919   22922   22923   22920   22919   22922
   22920   22919   22921   22921   22919   22922   22923   22922   22925
   22923   22922   22924   22924   22922   22925   22926   22939   22942
   22926   22939   22941   22926   22939   22940   22926   22935   22938
   22926   22935   22937   22926   22935   22936   22926   22931   22934
   22926   22931   22933   22926   22931   22932   22926   22927   22930
   22926   22927   22929   22926   22927   22928   22927   22926   22939
   22927   22926   22935   22927   22926   22931   22928   22927   22930
   22928   22927   22929   22929   22927   22930   22931   22926   22939
   22931   22926   22935   22932   22931   22934   22932   22931   22933
   22933   22931   22934   22935   22926   22939   22936   22935   22938
   22936   22935   22937   22937   22935   22938   22939   22942   22949
   22939   22942   22944   22939   22942   22943   22940   22939   22942
   22940   22939   22941   22941   22939   22942   22942   22949   22945
   22943   22942   22949   22943   22942   22944   22944   22942   22949
   22945   22948   22950   22946   22945   22947   22946   22945   22948
   22946   22945   22949   22947   22945   22948   22947   22945   22949
   22948   22945   22949   22948   22950   22951   22948   22950   22952
   22948   22950   22953   22950   22953   22955   22950   22953   22961
   22950   22953   22954   22951   22950   22953   22951   22950   22952
   22952   22950   22953   22953   22961   22964   22953   22961   22963
   22953   22961   22962   22953   22955   22956   22954   22953   22955
   22954   22953   22961   22955   22956   22957   22955   22956   22958
   22955   22953   22961   22956   22958   22970   22956   22958   22960
   22956   22958   22959   22957   22956   22958   22958   22970   22973
   22958   22970   22972   22958   22970   22971   22959   22958   22970
   22959   22958   22960   22960   22958   22970   22961   22964   22965
   22962   22961   22964   22962   22961   22963   22963   22961   22964
   22964   22965   22966   22964   22965   22967   22965   22967   23007
   22965   22967   22969   22965   22967   22968   22966   22965   22967
   22967   23007   23010   22967   23007   23009   22967   23007   23008
   22968   22967   23007   22968   22967   22969   22969   22967   23007
   22970   22973   22976   22970   22973   22975   22970   22973   22974
   22971   22970   22973   22971   22970   22972   22972   22970   22973
   22973   22976   22979   22973   22976   22978   22973   22976   22977
   22974   22973   22976   22974   22973   22975   22975   22973   22976
   22976   22979   22982   22976   22979   22981   22976   22979   22980
   22977   22976   22979   22977   22976   22978   22978   22976   22979
   22979   22982   22985   22979   22982   22984   22979   22982   22983
   22980   22979   22982   22980   22979   22981   22981   22979   22982
   22982   22985   22988   22982   22985   22987   22982   22985   22986
   22983   22982   22985   22983   22982   22984   22984   22982   22985
   22985   22988   22991   22985   22988   22990   22985   22988   22989
   22986   22985   22988   22986   22985   22987   22987   22985   22988
   22988   22991   22994   22988   22991   22993   22988   22991   22992
   22989   22988   22991   22989   22988   22990   22990   22988   22991
   22991   22994   22997   22991   22994   22996   22991   22994   22995
   22992   22991   22994   22992   22991   22993   22993   22991   22994
   22994   22997   23000   22994   22997   22999   22994   22997   22998
   22995   22994   22997   22995   22994   22996   22996   22994   22997
   22997   23000   23003   22997   23000   23002   22997   23000   23001
   22998   22997   23000   22998   22997   22999   22999   22997   23000
   23000   23003   23006   23000   23003   23005   23000   23003   23004
   23001   23000   23003   23001   23000   23002   23002   23000   23003
   23004   23003   23006   23004   23003   23005   23005   23003   23006
   23007   23010   23013   23007   23010   23012   23007   23010   23011
   23008   23007   23010   23008   23007   23009   23009   23007   23010
   23010   23013   23016   23010   23013   23015   23010   23013   23014
   23011   23010   23013   23011   23010   23012   23012   23010   23013
   23013   23016   23019   23013   23016   23018   23013   23016   23017
   23014   23013   23016   23014   23013   23015   23015   23013   23016
   23016   23019   23022   23016   23019   23021   23016   23019   23020
   23017   23016   23019   23017   23016   23018   23018   23016   23019
   23019   23022   23025   23019   23022   23024   23019   23022   23023
   23020   23019   23022   23020   23019   23021   23021   23019   23022
   23022   23025   23028   23022   23025   23027   23022   23025   23026
   23023   23022   23025   23023   23022   23024   23024   23022   23025
   23025   23028   23031   23025   23028   23030   23025   23028   23029
   23026   23025   23028   23026   23025   23027   23027   23025   23028
   23028   23031   23034   23028   23031   23033   23028   23031   23032
   23029   23028   23031   23029   23028   23030   23030   23028   23031
   23031   23034   23037   23031   23034   23036   23031   23034   23035
   23032   23031   23034   23032   23031   23033   23033   23031   23034
   23034   23037   23040   23034   23037   23039   23034   23037   23038
   23035   23034   23037   23035   23034   23036   23036   23034   23037
   23037   23040   23043   23037   23040   23042   23037   23040   23041
   23038   23037   23040   23038   23037   23039   23039   23037   23040
   23041   23040   23043   23041   23040   23042   23042   23040   23043
   23044   23057   23060   23044   23057   23059   23044   23057   23058
   23044   23053   23056   23044   23053   23055   23044   23053   23054
   23044   23049   23052   23044   23049   23051   23044   23049   23050
   23044   23045   23048   23044   23045   23047   23044   23045   23046
   23045   23044   23057   23045   23044   23053   23045   23044   23049
   23046   23045   23048   23046   23045   23047   23047   23045   23048
   23049   23044   23057   23049   23044   23053   23050   23049   23052
   23050   23049   23051   23051   23049   23052   23053   23044   23057
   23054   23053   23056   23054   23053   23055   23055   23053   23056
   23057   23060   23067   23057   23060   23062   23057   23060   23061
   23058   23057   23060   23058   23057   23059   23059   23057   23060
   23060   23067   23063   23061   23060   23067   23061   23060   23062
   23062   23060   23067   23063   23066   23068   23064   23063   23065
   23064   23063   23066   23064   23063   23067   23065   23063   23066
   23065   23063   23067   23066   23063   23067   23066   23068   23069
   23066   23068   23070   23066   23068   23071   23068   23071   23073
   23068   23071   23079   23068   23071   23072   23069   23068   23071
   23069   23068   23070   23070   23068   23071   23071   23079   23082
   23071   23079   23081   23071   23079   23080   23071   23073   23074
   23072   23071   23073   23072   23071   23079   23073   23074   23075
   23073   23074   23076   23073   23071   23079   23074   23076   23088
   23074   23076   23078   23074   23076   23077   23075   23074   23076
   23076   23088   23091   23076   23088   23090   23076   23088   23089
   23077   23076   23088   23077   23076   23078   23078   23076   23088
   23079   23082   23083   23080   23079   23082   23080   23079   23081
   23081   23079   23082   23082   23083   23084   23082   23083   23085
   23083   23085   23125   23083   23085   23087   23083   23085   23086
   23084   23083   23085   23085   23125   23128   23085   23125   23127
   23085   23125   23126   23086   23085   23125   23086   23085   23087
   23087   23085   23125   23088   23091   23094   23088   23091   23093
   23088   23091   23092   23089   23088   23091   23089   23088   23090
   23090   23088   23091   23091   23094   23097   23091   23094   23096
   23091   23094   23095   23092   23091   23094   23092   23091   23093
   23093   23091   23094   23094   23097   23100   23094   23097   23099
   23094   23097   23098   23095   23094   23097   23095   23094   23096
   23096   23094   23097   23097   23100   23103   23097   23100   23102
   23097   23100   23101   23098   23097   23100   23098   23097   23099
   23099   23097   23100   23100   23103   23106   23100   23103   23105
   23100   23103   23104   23101   23100   23103   23101   23100   23102
   23102   23100   23103   23103   23106   23109   23103   23106   23108
   23103   23106   23107   23104   23103   23106   23104   23103   23105
   23105   23103   23106   23106   23109   23112   23106   23109   23111
   23106   23109   23110   23107   23106   23109   23107   23106   23108
   23108   23106   23109   23109   23112   23115   23109   23112   23114
   23109   23112   23113   23110   23109   23112   23110   23109   23111
   23111   23109   23112   23112   23115   23118   23112   23115   23117
   23112   23115   23116   23113   23112   23115   23113   23112   23114
   23114   23112   23115   23115   23118   23121   23115   23118   23120
   23115   23118   23119   23116   23115   23118   23116   23115   23117
   23117   23115   23118   23118   23121   23124   23118   23121   23123
   23118   23121   23122   23119   23118   23121   23119   23118   23120
   23120   23118   23121   23122   23121   23124   23122   23121   23123
   23123   23121   23124   23125   23128   23131   23125   23128   23130
   23125   23128   23129   23126   23125   23128   23126   23125   23127
   23127   23125   23128   23128   23131   23134   23128   23131   23133
   23128   23131   23132   23129   23128   23131   23129   23128   23130
   23130   23128   23131   23131   23134   23137   23131   23134   23136
   23131   23134   23135   23132   23131   23134   23132   23131   23133
   23133   23131   23134   23134   23137   23140   23134   23137   23139
   23134   23137   23138   23135   23134   23137   23135   23134   23136
   23136   23134   23137   23137   23140   23143   23137   23140   23142
   23137   23140   23141   23138   23137   23140   23138   23137   23139
   23139   23137   23140   23140   23143   23146   23140   23143   23145
   23140   23143   23144   23141   23140   23143   23141   23140   23142
   23142   23140   23143   23143   23146   23149   23143   23146   23148
   23143   23146   23147   23144   23143   23146   23144   23143   23145
   23145   23143   23146   23146   23149   23152   23146   23149   23151
   23146   23149   23150   23147   23146   23149   23147   23146   23148
   23148   23146   23149   23149   23152   23155   23149   23152   23154
   23149   23152   23153   23150   23149   23152   23150   23149   23151
   23151   23149   23152   23152   23155   23158   23152   23155   23157
   23152   23155   23156   23153   23152   23155   23153   23152   23154
   23154   23152   23155   23155   23158   23161   23155   23158   23160
   23155   23158   23159   23156   23155   23158   23156   23155   23157
   23157   23155   23158   23159   23158   23161   23159   23158   23160
   23160   23158   23161   23162   23175   23178   23162   23175   23177
   23162   23175   23176   23162   23171   23174   23162   23171   23173
   23162   23171   23172   23162   23167   23170   23162   23167   23169
   23162   23167   23168   23162   23163   23166   23162   23163   23165
   23162   23163   23164   23163   23162   23175   23163   23162   23171
   23163   23162   23167   23164   23163   23166   23164   23163   23165
   23165   23163   23166   23167   23162   23175   23167   23162   23171
   23168   23167   23170   23168   23167   23169   23169   23167   23170
   23171   23162   23175   23172   23171   23174   23172   23171   23173
   23173   23171   23174   23175   23178   23185   23175   23178   23180
   23175   23178   23179   23176   23175   23178   23176   23175   23177
   23177   23175   23178   23178   23185   23181   23179   23178   23185
   23179   23178   23180   23180   23178   23185   23181   23184   23186
   23182   23181   23183   23182   23181   23184   23182   23181   23185
   23183   23181   23184   23183   23181   23185   23184   23181   23185
   23184   23186   23187   23184   23186   23188   23184   23186   23189
   23186   23189   23191   23186   23189   23197   23186   23189   23190
   23187   23186   23189   23187   23186   23188   23188   23186   23189
   23189   23197   23200   23189   23197   23199   23189   23197   23198
   23189   23191   23192   23190   23189   23191   23190   23189   23197
   23191   23192   23193   23191   23192   23194   23191   23189   23197
   23192   23194   23206   23192   23194   23196   23192   23194   23195
   23193   23192   23194   23194   23206   23209   23194   23206   23208
   23194   23206   23207   23195   23194   23206   23195   23194   23196
   23196   23194   23206   23197   23200   23201   23198   23197   23200
   23198   23197   23199   23199   23197   23200   23200   23201   23202
   23200   23201   23203   23201   23203   23243   23201   23203   23205
   23201   23203   23204   23202   23201   23203   23203   23243   23246
   23203   23243   23245   23203   23243   23244   23204   23203   23243
   23204   23203   23205   23205   23203   23243   23206   23209   23212
   23206   23209   23211   23206   23209   23210   23207   23206   23209
   23207   23206   23208   23208   23206   23209   23209   23212   23215
   23209   23212   23214   23209   23212   23213   23210   23209   23212
   23210   23209   23211   23211   23209   23212   23212   23215   23218
   23212   23215   23217   23212   23215   23216   23213   23212   23215
   23213   23212   23214   23214   23212   23215   23215   23218   23221
   23215   23218   23220   23215   23218   23219   23216   23215   23218
   23216   23215   23217   23217   23215   23218   23218   23221   23224
   23218   23221   23223   23218   23221   23222   23219   23218   23221
   23219   23218   23220   23220   23218   23221   23221   23224   23227
   23221   23224   23226   23221   23224   23225   23222   23221   23224
   23222   23221   23223   23223   23221   23224   23224   23227   23230
   23224   23227   23229   23224   23227   23228   23225   23224   23227
   23225   23224   23226   23226   23224   23227   23227   23230   23233
   23227   23230   23232   23227   23230   23231   23228   23227   23230
   23228   23227   23229   23229   23227   23230   23230   23233   23236
   23230   23233   23235   23230   23233   23234   23231   23230   23233
   23231   23230   23232   23232   23230   23233   23233   23236   23239
   23233   23236   23238   23233   23236   23237   23234   23233   23236
   23234   23233   23235   23235   23233   23236   23236   23239   23242
   23236   23239   23241   23236   23239   23240   23237   23236   23239
   23237   23236   23238   23238   23236   23239   23240   23239   23242
   23240   23239   23241   23241   23239   23242   23243   23246   23249
   23243   23246   23248   23243   23246   23247   23244   23243   23246
   23244   23243   23245   23245   23243   23246   23246   23249   23252
   23246   23249   23251   23246   23249   23250   23247   23246   23249
   23247   23246   23248   23248   23246   23249   23249   23252   23255
   23249   23252   23254   23249   23252   23253   23250   23249   23252
   23250   23249   23251   23251   23249   23252   23252   23255   23258
   23252   23255   23257   23252   23255   23256   23253   23252   23255
   23253   23252   23254   23254   23252   23255   23255   23258   23261
   23255   23258   23260   23255   23258   23259   23256   23255   23258
   23256   23255   23257   23257   23255   23258   23258   23261   23264
   23258   23261   23263   23258   23261   23262   23259   23258   23261
   23259   23258   23260   23260   23258   23261   23261   23264   23267
   23261   23264   23266   23261   23264   23265   23262   23261   23264
   23262   23261   23263   23263   23261   23264   23264   23267   23270
   23264   23267   23269   23264   23267   23268   23265   23264   23267
   23265   23264   23266   23266   23264   23267   23267   23270   23273
   23267   23270   23272   23267   23270   23271   23268   23267   23270
   23268   23267   23269   23269   23267   23270   23270   23273   23276
   23270   23273   23275   23270   23273   23274   23271   23270   23273
   23271   23270   23272   23272   23270   23273   23273   23276   23279
   23273   23276   23278   23273   23276   23277   23274   23273   23276
   23274   23273   23275   23275   23273   23276   23277   23276   23279
   23277   23276   23278   23278   23276   23279   23280   23293   23296
   23280   23293   23295   23280   23293   23294   23280   23289   23292
   23280   23289   23291   23280   23289   23290   23280   23285   23288
   23280   23285   23287   23280   23285   23286   23280   23281   23284
   23280   23281   23283   23280   23281   23282   23281   23280   23293
   23281   23280   23289   23281   23280   23285   23282   23281   23284
   23282   23281   23283   23283   23281   23284   23285   23280   23293
   23285   23280   23289   23286   23285   23288   23286   23285   23287
   23287   23285   23288   23289   23280   23293   23290   23289   23292
   23290   23289   23291   23291   23289   23292   23293   23296   23303
   23293   23296   23298   23293   23296   23297   23294   23293   23296
   23294   23293   23295   23295   23293   23296   23296   23303   23299
   23297   23296   23303   23297   23296   23298   23298   23296   23303
   23299   23302   23304   23300   23299   23301   23300   23299   23302
   23300   23299   23303   23301   23299   23302   23301   23299   23303
   23302   23299   23303   23302   23304   23305   23302   23304   23306
   23302   23304   23307   23304   23307   23309   23304   23307   23315
   23304   23307   23308   23305   23304   23307   23305   23304   23306
   23306   23304   23307   23307   23315   23318   23307   23315   23317
   23307   23315   23316   23307   23309   23310   23308   23307   23309
   23308   23307   23315   23309   23310   23311   23309   23310   23312
   23309   23307   23315   23310   23312   23324   23310   23312   23314
   23310   23312   23313   23311   23310   23312   23312   23324   23327
   23312   23324   23326   23312   23324   23325   23313   23312   23324
   23313   23312   23314   23314   23312   23324   23315   23318   23319
   23316   23315   23318   23316   23315   23317   23317   23315   23318
   23318   23319   23320   23318   23319   23321   23319   23321   23361
   23319   23321   23323   23319   23321   23322   23320   23319   23321
   23321   23361   23364   23321   23361   23363   23321   23361   23362
   23322   23321   23361   23322   23321   23323   23323   23321   23361
   23324   23327   23330   23324   23327   23329   23324   23327   23328
   23325   23324   23327   23325   23324   23326   23326   23324   23327
   23327   23330   23333   23327   23330   23332   23327   23330   23331
   23328   23327   23330   23328   23327   23329   23329   23327   23330
   23330   23333   23336   23330   23333   23335   23330   23333   23334
   23331   23330   23333   23331   23330   23332   23332   23330   23333
   23333   23336   23339   23333   23336   23338   23333   23336   23337
   23334   23333   23336   23334   23333   23335   23335   23333   23336
   23336   23339   23342   23336   23339   23341   23336   23339   23340
   23337   23336   23339   23337   23336   23338   23338   23336   23339
   23339   23342   23345   23339   23342   23344   23339   23342   23343
   23340   23339   23342   23340   23339   23341   23341   23339   23342
   23342   23345   23348   23342   23345   23347   23342   23345   23346
   23343   23342   23345   23343   23342   23344   23344   23342   23345
   23345   23348   23351   23345   23348   23350   23345   23348   23349
   23346   23345   23348   23346   23345   23347   23347   23345   23348
   23348   23351   23354   23348   23351   23353   23348   23351   23352
   23349   23348   23351   23349   23348   23350   23350   23348   23351
   23351   23354   23357   23351   23354   23356   23351   23354   23355
   23352   23351   23354   23352   23351   23353   23353   23351   23354
   23354   23357   23360   23354   23357   23359   23354   23357   23358
   23355   23354   23357   23355   23354   23356   23356   23354   23357
   23358   23357   23360   23358   23357   23359   23359   23357   23360
   23361   23364   23367   23361   23364   23366   23361   23364   23365
   23362   23361   23364   23362   23361   23363   23363   23361   23364
   23364   23367   23370   23364   23367   23369   23364   23367   23368
   23365   23364   23367   23365   23364   23366   23366   23364   23367
   23367   23370   23373   23367   23370   23372   23367   23370   23371
   23368   23367   23370   23368   23367   23369   23369   23367   23370
   23370   23373   23376   23370   23373   23375   23370   23373   23374
   23371   23370   23373   23371   23370   23372   23372   23370   23373
   23373   23376   23379   23373   23376   23378   23373   23376   23377
   23374   23373   23376   23374   23373   23375   23375   23373   23376
   23376   23379   23382   23376   23379   23381   23376   23379   23380
   23377   23376   23379   23377   23376   23378   23378   23376   23379
   23379   23382   23385   23379   23382   23384   23379   23382   23383
   23380   23379   23382   23380   23379   23381   23381   23379   23382
   23382   23385   23388   23382   23385   23387   23382   23385   23386
   23383   23382   23385   23383   23382   23384   23384   23382   23385
   23385   23388   23391   23385   23388   23390   23385   23388   23389
   23386   23385   23388   23386   23385   23387   23387   23385   23388
   23388   23391   23394   23388   23391   23393   23388   23391   23392
   23389   23388   23391   23389   23388   23390   23390   23388   23391
   23391   23394   23397   23391   23394   23396   23391   23394   23395
   23392   23391   23394   23392   23391   23393   23393   23391   23394
   23395   23394   23397   23395   23394   23396   23396   23394   23397
   23398   23411   23414   23398   23411   23413   23398   23411   23412
   23398   23407   23410   23398   23407   23409   23398   23407   23408
   23398   23403   23406   23398   23403   23405   23398   23403   23404
   23398   23399   23402   23398   23399   23401   23398   23399   23400
   23399   23398   23411   23399   23398   23407   23399   23398   23403
   23400   23399   23402   23400   23399   23401   23401   23399   23402
   23403   23398   23411   23403   23398   23407   23404   23403   23406
   23404   23403   23405   23405   23403   23406   23407   23398   23411
   23408   23407   23410   23408   23407   23409   23409   23407   23410
   23411   23414   23421   23411   23414   23416   23411   23414   23415
   23412   23411   23414   23412   23411   23413   23413   23411   23414
   23414   23421   23417   23415   23414   23421   23415   23414   23416
   23416   23414   23421   23417   23420   23422   23418   23417   23419
   23418   23417   23420   23418   23417   23421   23419   23417   23420
   23419   23417   23421   23420   23417   23421   23420   23422   23423
   23420   23422   23424   23420   23422   23425   23422   23425   23427
   23422   23425   23433   23422   23425   23426   23423   23422   23425
   23423   23422   23424   23424   23422   23425   23425   23433   23436
   23425   23433   23435   23425   23433   23434   23425   23427   23428
   23426   23425   23427   23426   23425   23433   23427   23428   23429
   23427   23428   23430   23427   23425   23433   23428   23430   23442
   23428   23430   23432   23428   23430   23431   23429   23428   23430
   23430   23442   23445   23430   23442   23444   23430   23442   23443
   23431   23430   23442   23431   23430   23432   23432   23430   23442
   23433   23436   23437   23434   23433   23436   23434   23433   23435
   23435   23433   23436   23436   23437   23438   23436   23437   23439
   23437   23439   23479   23437   23439   23441   23437   23439   23440
   23438   23437   23439   23439   23479   23482   23439   23479   23481
   23439   23479   23480   23440   23439   23479   23440   23439   23441
   23441   23439   23479   23442   23445   23448   23442   23445   23447
   23442   23445   23446   23443   23442   23445   23443   23442   23444
   23444   23442   23445   23445   23448   23451   23445   23448   23450
   23445   23448   23449   23446   23445   23448   23446   23445   23447
   23447   23445   23448   23448   23451   23454   23448   23451   23453
   23448   23451   23452   23449   23448   23451   23449   23448   23450
   23450   23448   23451   23451   23454   23457   23451   23454   23456
   23451   23454   23455   23452   23451   23454   23452   23451   23453
   23453   23451   23454   23454   23457   23460   23454   23457   23459
   23454   23457   23458   23455   23454   23457   23455   23454   23456
   23456   23454   23457   23457   23460   23463   23457   23460   23462
   23457   23460   23461   23458   23457   23460   23458   23457   23459
   23459   23457   23460   23460   23463   23466   23460   23463   23465
   23460   23463   23464   23461   23460   23463   23461   23460   23462
   23462   23460   23463   23463   23466   23469   23463   23466   23468
   23463   23466   23467   23464   23463   23466   23464   23463   23465
   23465   23463   23466   23466   23469   23472   23466   23469   23471
   23466   23469   23470   23467   23466   23469   23467   23466   23468
   23468   23466   23469   23469   23472   23475   23469   23472   23474
   23469   23472   23473   23470   23469   23472   23470   23469   23471
   23471   23469   23472   23472   23475   23478   23472   23475   23477
   23472   23475   23476   23473   23472   23475   23473   23472   23474
   23474   23472   23475   23476   23475   23478   23476   23475   23477
   23477   23475   23478   23479   23482   23485   23479   23482   23484
   23479   23482   23483   23480   23479   23482   23480   23479   23481
   23481   23479   23482   23482   23485   23488   23482   23485   23487
   23482   23485   23486   23483   23482   23485   23483   23482   23484
   23484   23482   23485   23485   23488   23491   23485   23488   23490
   23485   23488   23489   23486   23485   23488   23486   23485   23487
   23487   23485   23488   23488   23491   23494   23488   23491   23493
   23488   23491   23492   23489   23488   23491   23489   23488   23490
   23490   23488   23491   23491   23494   23497   23491   23494   23496
   23491   23494   23495   23492   23491   23494   23492   23491   23493
   23493   23491   23494   23494   23497   23500   23494   23497   23499
   23494   23497   23498   23495   23494   23497   23495   23494   23496
   23496   23494   23497   23497   23500   23503   23497   23500   23502
   23497   23500   23501   23498   23497   23500   23498   23497   23499
   23499   23497   23500   23500   23503   23506   23500   23503   23505
   23500   23503   23504   23501   23500   23503   23501   23500   23502
   23502   23500   23503   23503   23506   23509   23503   23506   23508
   23503   23506   23507   23504   23503   23506   23504   23503   23505
   23505   23503   23506   23506   23509   23512   23506   23509   23511
   23506   23509   23510   23507   23506   23509   23507   23506   23508
   23508   23506   23509   23509   23512   23515   23509   23512   23514
   23509   23512   23513   23510   23509   23512   23510   23509   23511
   23511   23509   23512   23513   23512   23515   23513   23512   23514
   23514   23512   23515   23516   23529   23532   23516   23529   23531
   23516   23529   23530   23516   23525   23528   23516   23525   23527
   23516   23525   23526   23516   23521   23524   23516   23521   23523
   23516   23521   23522   23516   23517   23520   23516   23517   23519
   23516   23517   23518   23517   23516   23529   23517   23516   23525
   23517   23516   23521   23518   23517   23520   23518   23517   23519
   23519   23517   23520   23521   23516   23529   23521   23516   23525
   23522   23521   23524   23522   23521   23523   23523   23521   23524
   23525   23516   23529   23526   23525   23528   23526   23525   23527
   23527   23525   23528   23529   23532   23539   23529   23532   23534
   23529   23532   23533   23530   23529   23532   23530   23529   23531
   23531   23529   23532   23532   23539   23535   23533   23532   23539
   23533   23532   23534   23534   23532   23539   23535   23538   23540
   23536   23535   23537   23536   23535   23538   23536   23535   23539
   23537   23535   23538   23537   23535   23539   23538   23535   23539
   23538   23540   23541   23538   23540   23542   23538   23540   23543
   23540   23543   23545   23540   23543   23551   23540   23543   23544
   23541   23540   23543   23541   23540   23542   23542   23540   23543
   23543   23551   23554   23543   23551   23553   23543   23551   23552
   23543   23545   23546   23544   23543   23545   23544   23543   23551
   23545   23546   23547   23545   23546   23548   23545   23543   23551
   23546   23548   23560   23546   23548   23550   23546   23548   23549
   23547   23546   23548   23548   23560   23563   23548   23560   23562
   23548   23560   23561   23549   23548   23560   23549   23548   23550
   23550   23548   23560   23551   23554   23555   23552   23551   23554
   23552   23551   23553   23553   23551   23554   23554   23555   23556
   23554   23555   23557   23555   23557   23597   23555   23557   23559
   23555   23557   23558   23556   23555   23557   23557   23597   23600
   23557   23597   23599   23557   23597   23598   23558   23557   23597
   23558   23557   23559   23559   23557   23597   23560   23563   23566
   23560   23563   23565   23560   23563   23564   23561   23560   23563
   23561   23560   23562   23562   23560   23563   23563   23566   23569
   23563   23566   23568   23563   23566   23567   23564   23563   23566
   23564   23563   23565   23565   23563   23566   23566   23569   23572
   23566   23569   23571   23566   23569   23570   23567   23566   23569
   23567   23566   23568   23568   23566   23569   23569   23572   23575
   23569   23572   23574   23569   23572   23573   23570   23569   23572
   23570   23569   23571   23571   23569   23572   23572   23575   23578
   23572   23575   23577   23572   23575   23576   23573   23572   23575
   23573   23572   23574   23574   23572   23575   23575   23578   23581
   23575   23578   23580   23575   23578   23579   23576   23575   23578
   23576   23575   23577   23577   23575   23578   23578   23581   23584
   23578   23581   23583   23578   23581   23582   23579   23578   23581
   23579   23578   23580   23580   23578   23581   23581   23584   23587
   23581   23584   23586   23581   23584   23585   23582   23581   23584
   23582   23581   23583   23583   23581   23584   23584   23587   23590
   23584   23587   23589   23584   23587   23588   23585   23584   23587
   23585   23584   23586   23586   23584   23587   23587   23590   23593
   23587   23590   23592   23587   23590   23591   23588   23587   23590
   23588   23587   23589   23589   23587   23590   23590   23593   23596
   23590   23593   23595   23590   23593   23594   23591   23590   23593
   23591   23590   23592   23592   23590   23593   23594   23593   23596
   23594   23593   23595   23595   23593   23596   23597   23600   23603
   23597   23600   23602   23597   23600   23601   23598   23597   23600
   23598   23597   23599   23599   23597   23600   23600   23603   23606
   23600   23603   23605   23600   23603   23604   23601   23600   23603
   23601   23600   23602   23602   23600   23603   23603   23606   23609
   23603   23606   23608   23603   23606   23607   23604   23603   23606
   23604   23603   23605   23605   23603   23606   23606   23609   23612
   23606   23609   23611   23606   23609   23610   23607   23606   23609
   23607   23606   23608   23608   23606   23609   23609   23612   23615
   23609   23612   23614   23609   23612   23613   23610   23609   23612
   23610   23609   23611   23611   23609   23612   23612   23615   23618
   23612   23615   23617   23612   23615   23616   23613   23612   23615
   23613   23612   23614   23614   23612   23615   23615   23618   23621
   23615   23618   23620   23615   23618   23619   23616   23615   23618
   23616   23615   23617   23617   23615   23618   23618   23621   23624
   23618   23621   23623   23618   23621   23622   23619   23618   23621
   23619   23618   23620   23620   23618   23621   23621   23624   23627
   23621   23624   23626   23621   23624   23625   23622   23621   23624
   23622   23621   23623   23623   23621   23624   23624   23627   23630
   23624   23627   23629   23624   23627   23628   23625   23624   23627
   23625   23624   23626   23626   23624   23627   23627   23630   23633
   23627   23630   23632   23627   23630   23631   23628   23627   23630
   23628   23627   23629   23629   23627   23630   23631   23630   23633
   23631   23630   23632   23632   23630   23633   23634   23647   23650
   23634   23647   23649   23634   23647   23648   23634   23643   23646
   23634   23643   23645   23634   23643   23644   23634   23639   23642
   23634   23639   23641   23634   23639   23640   23634   23635   23638
   23634   23635   23637   23634   23635   23636   23635   23634   23647
   23635   23634   23643   23635   23634   23639   23636   23635   23638
   23636   23635   23637   23637   23635   23638   23639   23634   23647
   23639   23634   23643   23640   23639   23642   23640   23639   23641
   23641   23639   23642   23643   23634   23647   23644   23643   23646
   23644   23643   23645   23645   23643   23646   23647   23650   23657
   23647   23650   23652   23647   23650   23651   23648   23647   23650
   23648   23647   23649   23649   23647   23650   23650   23657   23653
   23651   23650   23657   23651   23650   23652   23652   23650   23657
   23653   23656   23658   23654   23653   23655   23654   23653   23656
   23654   23653   23657   23655   23653   23656   23655   23653   23657
   23656   23653   23657   23656   23658   23659   23656   23658   23660
   23656   23658   23661   23658   23661   23663   23658   23661   23669
   23658   23661   23662   23659   23658   23661   23659   23658   23660
   23660   23658   23661   23661   23669   23672   23661   23669   23671
   23661   23669   23670   23661   23663   23664   23662   23661   23663
   23662   23661   23669   23663   23664   23665   23663   23664   23666
   23663   23661   23669   23664   23666   23678   23664   23666   23668
   23664   23666   23667   23665   23664   23666   23666   23678   23681
   23666   23678   23680   23666   23678   23679   23667   23666   23678
   23667   23666   23668   23668   23666   23678   23669   23672   23673
   23670   23669   23672   23670   23669   23671   23671   23669   23672
   23672   23673   23674   23672   23673   23675   23673   23675   23715
   23673   23675   23677   23673   23675   23676   23674   23673   23675
   23675   23715   23718   23675   23715   23717   23675   23715   23716
   23676   23675   23715   23676   23675   23677   23677   23675   23715
   23678   23681   23684   23678   23681   23683   23678   23681   23682
   23679   23678   23681   23679   23678   23680   23680   23678   23681
   23681   23684   23687   23681   23684   23686   23681   23684   23685
   23682   23681   23684   23682   23681   23683   23683   23681   23684
   23684   23687   23690   23684   23687   23689   23684   23687   23688
   23685   23684   23687   23685   23684   23686   23686   23684   23687
   23687   23690   23693   23687   23690   23692   23687   23690   23691
   23688   23687   23690   23688   23687   23689   23689   23687   23690
   23690   23693   23696   23690   23693   23695   23690   23693   23694
   23691   23690   23693   23691   23690   23692   23692   23690   23693
   23693   23696   23699   23693   23696   23698   23693   23696   23697
   23694   23693   23696   23694   23693   23695   23695   23693   23696
   23696   23699   23702   23696   23699   23701   23696   23699   23700
   23697   23696   23699   23697   23696   23698   23698   23696   23699
   23699   23702   23705   23699   23702   23704   23699   23702   23703
   23700   23699   23702   23700   23699   23701   23701   23699   23702
   23702   23705   23708   23702   23705   23707   23702   23705   23706
   23703   23702   23705   23703   23702   23704   23704   23702   23705
   23705   23708   23711   23705   23708   23710   23705   23708   23709
   23706   23705   23708   23706   23705   23707   23707   23705   23708
   23708   23711   23714   23708   23711   23713   23708   23711   23712
   23709   23708   23711   23709   23708   23710   23710   23708   23711
   23712   23711   23714   23712   23711   23713   23713   23711   23714
   23715   23718   23721   23715   23718   23720   23715   23718   23719
   23716   23715   23718   23716   23715   23717   23717   23715   23718
   23718   23721   23724   23718   23721   23723   23718   23721   23722
   23719   23718   23721   23719   23718   23720   23720   23718   23721
   23721   23724   23727   23721   23724   23726   23721   23724   23725
   23722   23721   23724   23722   23721   23723   23723   23721   23724
   23724   23727   23730   23724   23727   23729   23724   23727   23728
   23725   23724   23727   23725   23724   23726   23726   23724   23727
   23727   23730   23733   23727   23730   23732   23727   23730   23731
   23728   23727   23730   23728   23727   23729   23729   23727   23730
   23730   23733   23736   23730   23733   23735   23730   23733   23734
   23731   23730   23733   23731   23730   23732   23732   23730   23733
   23733   23736   23739   23733   23736   23738   23733   23736   23737
   23734   23733   23736   23734   23733   23735   23735   23733   23736
   23736   23739   23742   23736   23739   23741   23736   23739   23740
   23737   23736   23739   23737   23736   23738   23738   23736   23739
   23739   23742   23745   23739   23742   23744   23739   23742   23743
   23740   23739   23742   23740   23739   23741   23741   23739   23742
   23742   23745   23748   23742   23745   23747   23742   23745   23746
   23743   23742   23745   23743   23742   23744   23744   23742   23745
   23745   23748   23751   23745   23748   23750   23745   23748   23749
   23746   23745   23748   23746   23745   23747   23747   23745   23748
   23749   23748   23751   23749   23748   23750   23750   23748   23751
   23752   23765   23768   23752   23765   23767   23752   23765   23766
   23752   23761   23764   23752   23761   23763   23752   23761   23762
   23752   23757   23760   23752   23757   23759   23752   23757   23758
   23752   23753   23756   23752   23753   23755   23752   23753   23754
   23753   23752   23765   23753   23752   23761   23753   23752   23757
   23754   23753   23756   23754   23753   23755   23755   23753   23756
   23757   23752   23765   23757   23752   23761   23758   23757   23760
   23758   23757   23759   23759   23757   23760   23761   23752   23765
   23762   23761   23764   23762   23761   23763   23763   23761   23764
   23765   23768   23775   23765   23768   23770   23765   23768   23769
   23766   23765   23768   23766   23765   23767   23767   23765   23768
   23768   23775   23771   23769   23768   23775   23769   23768   23770
   23770   23768   23775   23771   23774   23776   23772   23771   23773
   23772   23771   23774   23772   23771   23775   23773   23771   23774
   23773   23771   23775   23774   23771   23775   23774   23776   23777
   23774   23776   23778   23774   23776   23779   23776   23779   23781
   23776   23779   23787   23776   23779   23780   23777   23776   23779
   23777   23776   23778   23778   23776   23779   23779   23787   23790
   23779   23787   23789   23779   23787   23788   23779   23781   23782
   23780   23779   23781   23780   23779   23787   23781   23782   23783
   23781   23782   23784   23781   23779   23787   23782   23784   23796
   23782   23784   23786   23782   23784   23785   23783   23782   23784
   23784   23796   23799   23784   23796   23798   23784   23796   23797
   23785   23784   23796   23785   23784   23786   23786   23784   23796
   23787   23790   23791   23788   23787   23790   23788   23787   23789
   23789   23787   23790   23790   23791   23792   23790   23791   23793
   23791   23793   23833   23791   23793   23795   23791   23793   23794
   23792   23791   23793   23793   23833   23836   23793   23833   23835
   23793   23833   23834   23794   23793   23833   23794   23793   23795
   23795   23793   23833   23796   23799   23802   23796   23799   23801
   23796   23799   23800   23797   23796   23799   23797   23796   23798
   23798   23796   23799   23799   23802   23805   23799   23802   23804
   23799   23802   23803   23800   23799   23802   23800   23799   23801
   23801   23799   23802   23802   23805   23808   23802   23805   23807
   23802   23805   23806   23803   23802   23805   23803   23802   23804
   23804   23802   23805   23805   23808   23811   23805   23808   23810
   23805   23808   23809   23806   23805   23808   23806   23805   23807
   23807   23805   23808   23808   23811   23814   23808   23811   23813
   23808   23811   23812   23809   23808   23811   23809   23808   23810
   23810   23808   23811   23811   23814   23817   23811   23814   23816
   23811   23814   23815   23812   23811   23814   23812   23811   23813
   23813   23811   23814   23814   23817   23820   23814   23817   23819
   23814   23817   23818   23815   23814   23817   23815   23814   23816
   23816   23814   23817   23817   23820   23823   23817   23820   23822
   23817   23820   23821   23818   23817   23820   23818   23817   23819
   23819   23817   23820   23820   23823   23826   23820   23823   23825
   23820   23823   23824   23821   23820   23823   23821   23820   23822
   23822   23820   23823   23823   23826   23829   23823   23826   23828
   23823   23826   23827   23824   23823   23826   23824   23823   23825
   23825   23823   23826   23826   23829   23832   23826   23829   23831
   23826   23829   23830   23827   23826   23829   23827   23826   23828
   23828   23826   23829   23830   23829   23832   23830   23829   23831
   23831   23829   23832   23833   23836   23839   23833   23836   23838
   23833   23836   23837   23834   23833   23836   23834   23833   23835
   23835   23833   23836   23836   23839   23842   23836   23839   23841
   23836   23839   23840   23837   23836   23839   23837   23836   23838
   23838   23836   23839   23839   23842   23845   23839   23842   23844
   23839   23842   23843   23840   23839   23842   23840   23839   23841
   23841   23839   23842   23842   23845   23848   23842   23845   23847
   23842   23845   23846   23843   23842   23845   23843   23842   23844
   23844   23842   23845   23845   23848   23851   23845   23848   23850
   23845   23848   23849   23846   23845   23848   23846   23845   23847
   23847   23845   23848   23848   23851   23854   23848   23851   23853
   23848   23851   23852   23849   23848   23851   23849   23848   23850
   23850   23848   23851   23851   23854   23857   23851   23854   23856
   23851   23854   23855   23852   23851   23854   23852   23851   23853
   23853   23851   23854   23854   23857   23860   23854   23857   23859
   23854   23857   23858   23855   23854   23857   23855   23854   23856
   23856   23854   23857   23857   23860   23863   23857   23860   23862
   23857   23860   23861   23858   23857   23860   23858   23857   23859
   23859   23857   23860   23860   23863   23866   23860   23863   23865
   23860   23863   23864   23861   23860   23863   23861   23860   23862
   23862   23860   23863   23863   23866   23869   23863   23866   23868
   23863   23866   23867   23864   23863   23866   23864   23863   23865
   23865   23863   23866   23867   23866   23869   23867   23866   23868
   23868   23866   23869   23870   23883   23886   23870   23883   23885
   23870   23883   23884   23870   23879   23882   23870   23879   23881
   23870   23879   23880   23870   23875   23878   23870   23875   23877
   23870   23875   23876   23870   23871   23874   23870   23871   23873
   23870   23871   23872   23871   23870   23883   23871   23870   23879
   23871   23870   23875   23872   23871   23874   23872   23871   23873
   23873   23871   23874   23875   23870   23883   23875   23870   23879
   23876   23875   23878   23876   23875   23877   23877   23875   23878
   23879   23870   23883   23880   23879   23882   23880   23879   23881
   23881   23879   23882   23883   23886   23893   23883   23886   23888
   23883   23886   23887   23884   23883   23886   23884   23883   23885
   23885   23883   23886   23886   23893   23889   23887   23886   23893
   23887   23886   23888   23888   23886   23893   23889   23892   23894
   23890   23889   23891   23890   23889   23892   23890   23889   23893
   23891   23889   23892   23891   23889   23893   23892   23889   23893
   23892   23894   23895   23892   23894   23896   23892   23894   23897
   23894   23897   23899   23894   23897   23905   23894   23897   23898
   23895   23894   23897   23895   23894   23896   23896   23894   23897
   23897   23905   23908   23897   23905   23907   23897   23905   23906
   23897   23899   23900   23898   23897   23899   23898   23897   23905
   23899   23900   23901   23899   23900   23902   23899   23897   23905
   23900   23902   23914   23900   23902   23904   23900   23902   23903
   23901   23900   23902   23902   23914   23917   23902   23914   23916
   23902   23914   23915   23903   23902   23914   23903   23902   23904
   23904   23902   23914   23905   23908   23909   23906   23905   23908
   23906   23905   23907   23907   23905   23908   23908   23909   23910
   23908   23909   23911   23909   23911   23951   23909   23911   23913
   23909   23911   23912   23910   23909   23911   23911   23951   23954
   23911   23951   23953   23911   23951   23952   23912   23911   23951
   23912   23911   23913   23913   23911   23951   23914   23917   23920
   23914   23917   23919   23914   23917   23918   23915   23914   23917
   23915   23914   23916   23916   23914   23917   23917   23920   23923
   23917   23920   23922   23917   23920   23921   23918   23917   23920
   23918   23917   23919   23919   23917   23920   23920   23923   23926
   23920   23923   23925   23920   23923   23924   23921   23920   23923
   23921   23920   23922   23922   23920   23923   23923   23926   23929
   23923   23926   23928   23923   23926   23927   23924   23923   23926
   23924   23923   23925   23925   23923   23926   23926   23929   23932
   23926   23929   23931   23926   23929   23930   23927   23926   23929
   23927   23926   23928   23928   23926   23929   23929   23932   23935
   23929   23932   23934   23929   23932   23933   23930   23929   23932
   23930   23929   23931   23931   23929   23932   23932   23935   23938
   23932   23935   23937   23932   23935   23936   23933   23932   23935
   23933   23932   23934   23934   23932   23935   23935   23938   23941
   23935   23938   23940   23935   23938   23939   23936   23935   23938
   23936   23935   23937   23937   23935   23938   23938   23941   23944
   23938   23941   23943   23938   23941   23942   23939   23938   23941
   23939   23938   23940   23940   23938   23941   23941   23944   23947
   23941   23944   23946   23941   23944   23945   23942   23941   23944
   23942   23941   23943   23943   23941   23944   23944   23947   23950
   23944   23947   23949   23944   23947   23948   23945   23944   23947
   23945   23944   23946   23946   23944   23947   23948   23947   23950
   23948   23947   23949   23949   23947   23950   23951   23954   23957
   23951   23954   23956   23951   23954   23955   23952   23951   23954
   23952   23951   23953   23953   23951   23954   23954   23957   23960
   23954   23957   23959   23954   23957   23958   23955   23954   23957
   23955   23954   23956   23956   23954   23957   23957   23960   23963
   23957   23960   23962   23957   23960   23961   23958   23957   23960
   23958   23957   23959   23959   23957   23960   23960   23963   23966
   23960   23963   23965   23960   23963   23964   23961   23960   23963
   23961   23960   23962   23962   23960   23963   23963   23966   23969
   23963   23966   23968   23963   23966   23967   23964   23963   23966
   23964   23963   23965   23965   23963   23966   23966   23969   23972
   23966   23969   23971   23966   23969   23970   23967   23966   23969
   23967   23966   23968   23968   23966   23969   23969   23972   23975
   23969   23972   23974   23969   23972   23973   23970   23969   23972
   23970   23969   23971   23971   23969   23972   23972   23975   23978
   23972   23975   23977   23972   23975   23976   23973   23972   23975
   23973   23972   23974   23974   23972   23975   23975   23978   23981
   23975   23978   23980   23975   23978   23979   23976   23975   23978
   23976   23975   23977   23977   23975   23978   23978   23981   23984
   23978   23981   23983   23978   23981   23982   23979   23978   23981
   23979   23978   23980   23980   23978   23981   23981   23984   23987
   23981   23984   23986   23981   23984   23985   23982   23981   23984
   23982   23981   23983   23983   23981   23984   23985   23984   23987
   23985   23984   23986   23986   23984   23987   23988   24001   24004
   23988   24001   24003   23988   24001   24002   23988   23997   24000
   23988   23997   23999   23988   23997   23998   23988   23993   23996
   23988   23993   23995   23988   23993   23994   23988   23989   23992
   23988   23989   23991   23988   23989   23990   23989   23988   24001
   23989   23988   23997   23989   23988   23993   23990   23989   23992
   23990   23989   23991   23991   23989   23992   23993   23988   24001
   23993   23988   23997   23994   23993   23996   23994   23993   23995
   23995   23993   23996   23997   23988   24001   23998   23997   24000
   23998   23997   23999   23999   23997   24000   24001   24004   24011
   24001   24004   24006   24001   24004   24005   24002   24001   24004
   24002   24001   24003   24003   24001   24004   24004   24011   24007
   24005   24004   24011   24005   24004   24006   24006   24004   24011
   24007   24010   24012   24008   24007   24009   24008   24007   24010
   24008   24007   24011   24009   24007   24010   24009   24007   24011
   24010   24007   24011   24010   24012   24013   24010   24012   24014
   24010   24012   24015   24012   24015   24017   24012   24015   24023
   24012   24015   24016   24013   24012   24015   24013   24012   24014
   24014   24012   24015   24015   24023   24026   24015   24023   24025
   24015   24023   24024   24015   24017   24018   24016   24015   24017
   24016   24015   24023   24017   24018   24019   24017   24018   24020
   24017   24015   24023   24018   24020   24032   24018   24020   24022
   24018   24020   24021   24019   24018   24020   24020   24032   24035
   24020   24032   24034   24020   24032   24033   24021   24020   24032
   24021   24020   24022   24022   24020   24032   24023   24026   24027
   24024   24023   24026   24024   24023   24025   24025   24023   24026
   24026   24027   24028   24026   24027   24029   24027   24029   24069
   24027   24029   24031   24027   24029   24030   24028   24027   24029
   24029   24069   24072   24029   24069   24071   24029   24069   24070
   24030   24029   24069   24030   24029   24031   24031   24029   24069
   24032   24035   24038   24032   24035   24037   24032   24035   24036
   24033   24032   24035   24033   24032   24034   24034   24032   24035
   24035   24038   24041   24035   24038   24040   24035   24038   24039
   24036   24035   24038   24036   24035   24037   24037   24035   24038
   24038   24041   24044   24038   24041   24043   24038   24041   24042
   24039   24038   24041   24039   24038   24040   24040   24038   24041
   24041   24044   24047   24041   24044   24046   24041   24044   24045
   24042   24041   24044   24042   24041   24043   24043   24041   24044
   24044   24047   24050   24044   24047   24049   24044   24047   24048
   24045   24044   24047   24045   24044   24046   24046   24044   24047
   24047   24050   24053   24047   24050   24052   24047   24050   24051
   24048   24047   24050   24048   24047   24049   24049   24047   24050
   24050   24053   24056   24050   24053   24055   24050   24053   24054
   24051   24050   24053   24051   24050   24052   24052   24050   24053
   24053   24056   24059   24053   24056   24058   24053   24056   24057
   24054   24053   24056   24054   24053   24055   24055   24053   24056
   24056   24059   24062   24056   24059   24061   24056   24059   24060
   24057   24056   24059   24057   24056   24058   24058   24056   24059
   24059   24062   24065   24059   24062   24064   24059   24062   24063
   24060   24059   24062   24060   24059   24061   24061   24059   24062
   24062   24065   24068   24062   24065   24067   24062   24065   24066
   24063   24062   24065   24063   24062   24064   24064   24062   24065
   24066   24065   24068   24066   24065   24067   24067   24065   24068
   24069   24072   24075   24069   24072   24074   24069   24072   24073
   24070   24069   24072   24070   24069   24071   24071   24069   24072
   24072   24075   24078   24072   24075   24077   24072   24075   24076
   24073   24072   24075   24073   24072   24074   24074   24072   24075
   24075   24078   24081   24075   24078   24080   24075   24078   24079
   24076   24075   24078   24076   24075   24077   24077   24075   24078
   24078   24081   24084   24078   24081   24083   24078   24081   24082
   24079   24078   24081   24079   24078   24080   24080   24078   24081
   24081   24084   24087   24081   24084   24086   24081   24084   24085
   24082   24081   24084   24082   24081   24083   24083   24081   24084
   24084   24087   24090   24084   24087   24089   24084   24087   24088
   24085   24084   24087   24085   24084   24086   24086   24084   24087
   24087   24090   24093   24087   24090   24092   24087   24090   24091
   24088   24087   24090   24088   24087   24089   24089   24087   24090
   24090   24093   24096   24090   24093   24095   24090   24093   24094
   24091   24090   24093   24091   24090   24092   24092   24090   24093
   24093   24096   24099   24093   24096   24098   24093   24096   24097
   24094   24093   24096   24094   24093   24095   24095   24093   24096
   24096   24099   24102   24096   24099   24101   24096   24099   24100
   24097   24096   24099   24097   24096   24098   24098   24096   24099
   24099   24102   24105   24099   24102   24104   24099   24102   24103
   24100   24099   24102   24100   24099   24101   24101   24099   24102
   24103   24102   24105   24103   24102   24104   24104   24102   24105
   24106   24119   24122   24106   24119   24121   24106   24119   24120
   24106   24115   24118   24106   24115   24117   24106   24115   24116
   24106   24111   24114   24106   24111   24113   24106   24111   24112
   24106   24107   24110   24106   24107   24109   24106   24107   24108
   24107   24106   24119   24107   24106   24115   24107   24106   24111
   24108   24107   24110   24108   24107   24109   24109   24107   24110
   24111   24106   24119   24111   24106   24115   24112   24111   24114
   24112   24111   24113   24113   24111   24114   24115   24106   24119
   24116   24115   24118   24116   24115   24117   24117   24115   24118
   24119   24122   24129   24119   24122   24124   24119   24122   24123
   24120   24119   24122   24120   24119   24121   24121   24119   24122
   24122   24129   24125   24123   24122   24129   24123   24122   24124
   24124   24122   24129   24125   24128   24130   24126   24125   24127
   24126   24125   24128   24126   24125   24129   24127   24125   24128
   24127   24125   24129   24128   24125   24129   24128   24130   24131
   24128   24130   24132   24128   24130   24133   24130   24133   24135
   24130   24133   24141   24130   24133   24134   24131   24130   24133
   24131   24130   24132   24132   24130   24133   24133   24141   24144
   24133   24141   24143   24133   24141   24142   24133   24135   24136
   24134   24133   24135   24134   24133   24141   24135   24136   24137
   24135   24136   24138   24135   24133   24141   24136   24138   24150
   24136   24138   24140   24136   24138   24139   24137   24136   24138
   24138   24150   24153   24138   24150   24152   24138   24150   24151
   24139   24138   24150   24139   24138   24140   24140   24138   24150
   24141   24144   24145   24142   24141   24144   24142   24141   24143
   24143   24141   24144   24144   24145   24146   24144   24145   24147
   24145   24147   24187   24145   24147   24149   24145   24147   24148
   24146   24145   24147   24147   24187   24190   24147   24187   24189
   24147   24187   24188   24148   24147   24187   24148   24147   24149
   24149   24147   24187   24150   24153   24156   24150   24153   24155
   24150   24153   24154   24151   24150   24153   24151   24150   24152
   24152   24150   24153   24153   24156   24159   24153   24156   24158
   24153   24156   24157   24154   24153   24156   24154   24153   24155
   24155   24153   24156   24156   24159   24162   24156   24159   24161
   24156   24159   24160   24157   24156   24159   24157   24156   24158
   24158   24156   24159   24159   24162   24165   24159   24162   24164
   24159   24162   24163   24160   24159   24162   24160   24159   24161
   24161   24159   24162   24162   24165   24168   24162   24165   24167
   24162   24165   24166   24163   24162   24165   24163   24162   24164
   24164   24162   24165   24165   24168   24171   24165   24168   24170
   24165   24168   24169   24166   24165   24168   24166   24165   24167
   24167   24165   24168   24168   24171   24174   24168   24171   24173
   24168   24171   24172   24169   24168   24171   24169   24168   24170
   24170   24168   24171   24171   24174   24177   24171   24174   24176
   24171   24174   24175   24172   24171   24174   24172   24171   24173
   24173   24171   24174   24174   24177   24180   24174   24177   24179
   24174   24177   24178   24175   24174   24177   24175   24174   24176
   24176   24174   24177   24177   24180   24183   24177   24180   24182
   24177   24180   24181   24178   24177   24180   24178   24177   24179
   24179   24177   24180   24180   24183   24186   24180   24183   24185
   24180   24183   24184   24181   24180   24183   24181   24180   24182
   24182   24180   24183   24184   24183   24186   24184   24183   24185
   24185   24183   24186   24187   24190   24193   24187   24190   24192
   24187   24190   24191   24188   24187   24190   24188   24187   24189
   24189   24187   24190   24190   24193   24196   24190   24193   24195
   24190   24193   24194   24191   24190   24193   24191   24190   24192
   24192   24190   24193   24193   24196   24199   24193   24196   24198
   24193   24196   24197   24194   24193   24196   24194   24193   24195
   24195   24193   24196   24196   24199   24202   24196   24199   24201
   24196   24199   24200   24197   24196   24199   24197   24196   24198
   24198   24196   24199   24199   24202   24205   24199   24202   24204
   24199   24202   24203   24200   24199   24202   24200   24199   24201
   24201   24199   24202   24202   24205   24208   24202   24205   24207
   24202   24205   24206   24203   24202   24205   24203   24202   24204
   24204   24202   24205   24205   24208   24211   24205   24208   24210
   24205   24208   24209   24206   24205   24208   24206   24205   24207
   24207   24205   24208   24208   24211   24214   24208   24211   24213
   24208   24211   24212   24209   24208   24211   24209   24208   24210
   24210   24208   24211   24211   24214   24217   24211   24214   24216
   24211   24214   24215   24212   24211   24214   24212   24211   24213
   24213   24211   24214   24214   24217   24220   24214   24217   24219
   24214   24217   24218   24215   24214   24217   24215   24214   24216
   24216   24214   24217   24217   24220   24223   24217   24220   24222
   24217   24220   24221   24218   24217   24220   24218   24217   24219
   24219   24217   24220   24221   24220   24223   24221   24220   24222
   24222   24220   24223   24224   24237   24240   24224   24237   24239
   24224   24237   24238   24224   24233   24236   24224   24233   24235
   24224   24233   24234   24224   24229   24232   24224   24229   24231
   24224   24229   24230   24224   24225   24228   24224   24225   24227
   24224   24225   24226   24225   24224   24237   24225   24224   24233
   24225   24224   24229   24226   24225   24228   24226   24225   24227
   24227   24225   24228   24229   24224   24237   24229   24224   24233
   24230   24229   24232   24230   24229   24231   24231   24229   24232
   24233   24224   24237   24234   24233   24236   24234   24233   24235
   24235   24233   24236   24237   24240   24247   24237   24240   24242
   24237   24240   24241   24238   24237   24240   24238   24237   24239
   24239   24237   24240   24240   24247   24243   24241   24240   24247
   24241   24240   24242   24242   24240   24247   24243   24246   24248
   24244   24243   24245   24244   24243   24246   24244   24243   24247
   24245   24243   24246   24245   24243   24247   24246   24243   24247
   24246   24248   24249   24246   24248   24250   24246   24248   24251
   24248   24251   24253   24248   24251   24259   24248   24251   24252
   24249   24248   24251   24249   24248   24250   24250   24248   24251
   24251   24259   24262   24251   24259   24261   24251   24259   24260
   24251   24253   24254   24252   24251   24253   24252   24251   24259
   24253   24254   24255   24253   24254   24256   24253   24251   24259
   24254   24256   24268   24254   24256   24258   24254   24256   24257
   24255   24254   24256   24256   24268   24271   24256   24268   24270
   24256   24268   24269   24257   24256   24268   24257   24256   24258
   24258   24256   24268   24259   24262   24263   24260   24259   24262
   24260   24259   24261   24261   24259   24262   24262   24263   24264
   24262   24263   24265   24263   24265   24305   24263   24265   24267
   24263   24265   24266   24264   24263   24265   24265   24305   24308
   24265   24305   24307   24265   24305   24306   24266   24265   24305
   24266   24265   24267   24267   24265   24305   24268   24271   24274
   24268   24271   24273   24268   24271   24272   24269   24268   24271
   24269   24268   24270   24270   24268   24271   24271   24274   24277
   24271   24274   24276   24271   24274   24275   24272   24271   24274
   24272   24271   24273   24273   24271   24274   24274   24277   24280
   24274   24277   24279   24274   24277   24278   24275   24274   24277
   24275   24274   24276   24276   24274   24277   24277   24280   24283
   24277   24280   24282   24277   24280   24281   24278   24277   24280
   24278   24277   24279   24279   24277   24280   24280   24283   24286
   24280   24283   24285   24280   24283   24284   24281   24280   24283
   24281   24280   24282   24282   24280   24283   24283   24286   24289
   24283   24286   24288   24283   24286   24287   24284   24283   24286
   24284   24283   24285   24285   24283   24286   24286   24289   24292
   24286   24289   24291   24286   24289   24290   24287   24286   24289
   24287   24286   24288   24288   24286   24289   24289   24292   24295
   24289   24292   24294   24289   24292   24293   24290   24289   24292
   24290   24289   24291   24291   24289   24292   24292   24295   24298
   24292   24295   24297   24292   24295   24296   24293   24292   24295
   24293   24292   24294   24294   24292   24295   24295   24298   24301
   24295   24298   24300   24295   24298   24299   24296   24295   24298
   24296   24295   24297   24297   24295   24298   24298   24301   24304
   24298   24301   24303   24298   24301   24302   24299   24298   24301
   24299   24298   24300   24300   24298   24301   24302   24301   24304
   24302   24301   24303   24303   24301   24304   24305   24308   24311
   24305   24308   24310   24305   24308   24309   24306   24305   24308
   24306   24305   24307   24307   24305   24308   24308   24311   24314
   24308   24311   24313   24308   24311   24312   24309   24308   24311
   24309   24308   24310   24310   24308   24311   24311   24314   24317
   24311   24314   24316   24311   24314   24315   24312   24311   24314
   24312   24311   24313   24313   24311   24314   24314   24317   24320
   24314   24317   24319   24314   24317   24318   24315   24314   24317
   24315   24314   24316   24316   24314   24317   24317   24320   24323
   24317   24320   24322   24317   24320   24321   24318   24317   24320
   24318   24317   24319   24319   24317   24320   24320   24323   24326
   24320   24323   24325   24320   24323   24324   24321   24320   24323
   24321   24320   24322   24322   24320   24323   24323   24326   24329
   24323   24326   24328   24323   24326   24327   24324   24323   24326
   24324   24323   24325   24325   24323   24326   24326   24329   24332
   24326   24329   24331   24326   24329   24330   24327   24326   24329
   24327   24326   24328   24328   24326   24329   24329   24332   24335
   24329   24332   24334   24329   24332   24333   24330   24329   24332
   24330   24329   24331   24331   24329   24332   24332   24335   24338
   24332   24335   24337   24332   24335   24336   24333   24332   24335
   24333   24332   24334   24334   24332   24335   24335   24338   24341
   24335   24338   24340   24335   24338   24339   24336   24335   24338
   24336   24335   24337   24337   24335   24338   24339   24338   24341
   24339   24338   24340   24340   24338   24341   24342   24355   24358
   24342   24355   24357   24342   24355   24356   24342   24351   24354
   24342   24351   24353   24342   24351   24352   24342   24347   24350
   24342   24347   24349   24342   24347   24348   24342   24343   24346
   24342   24343   24345   24342   24343   24344   24343   24342   24355
   24343   24342   24351   24343   24342   24347   24344   24343   24346
   24344   24343   24345   24345   24343   24346   24347   24342   24355
   24347   24342   24351   24348   24347   24350   24348   24347   24349
   24349   24347   24350   24351   24342   24355   24352   24351   24354
   24352   24351   24353   24353   24351   24354   24355   24358   24365
   24355   24358   24360   24355   24358   24359   24356   24355   24358
   24356   24355   24357   24357   24355   24358   24358   24365   24361
   24359   24358   24365   24359   24358   24360   24360   24358   24365
   24361   24364   24366   24362   24361   24363   24362   24361   24364
   24362   24361   24365   24363   24361   24364   24363   24361   24365
   24364   24361   24365   24364   24366   24367   24364   24366   24368
   24364   24366   24369   24366   24369   24371   24366   24369   24377
   24366   24369   24370   24367   24366   24369   24367   24366   24368
   24368   24366   24369   24369   24377   24380   24369   24377   24379
   24369   24377   24378   24369   24371   24372   24370   24369   24371
   24370   24369   24377   24371   24372   24373   24371   24372   24374
   24371   24369   24377   24372   24374   24386   24372   24374   24376
   24372   24374   24375   24373   24372   24374   24374   24386   24389
   24374   24386   24388   24374   24386   24387   24375   24374   24386
   24375   24374   24376   24376   24374   24386   24377   24380   24381
   24378   24377   24380   24378   24377   24379   24379   24377   24380
   24380   24381   24382   24380   24381   24383   24381   24383   24423
   24381   24383   24385   24381   24383   24384   24382   24381   24383
   24383   24423   24426   24383   24423   24425   24383   24423   24424
   24384   24383   24423   24384   24383   24385   24385   24383   24423
   24386   24389   24392   24386   24389   24391   24386   24389   24390
   24387   24386   24389   24387   24386   24388   24388   24386   24389
   24389   24392   24395   24389   24392   24394   24389   24392   24393
   24390   24389   24392   24390   24389   24391   24391   24389   24392
   24392   24395   24398   24392   24395   24397   24392   24395   24396
   24393   24392   24395   24393   24392   24394   24394   24392   24395
   24395   24398   24401   24395   24398   24400   24395   24398   24399
   24396   24395   24398   24396   24395   24397   24397   24395   24398
   24398   24401   24404   24398   24401   24403   24398   24401   24402
   24399   24398   24401   24399   24398   24400   24400   24398   24401
   24401   24404   24407   24401   24404   24406   24401   24404   24405
   24402   24401   24404   24402   24401   24403   24403   24401   24404
   24404   24407   24410   24404   24407   24409   24404   24407   24408
   24405   24404   24407   24405   24404   24406   24406   24404   24407
   24407   24410   24413   24407   24410   24412   24407   24410   24411
   24408   24407   24410   24408   24407   24409   24409   24407   24410
   24410   24413   24416   24410   24413   24415   24410   24413   24414
   24411   24410   24413   24411   24410   24412   24412   24410   24413
   24413   24416   24419   24413   24416   24418   24413   24416   24417
   24414   24413   24416   24414   24413   24415   24415   24413   24416
   24416   24419   24422   24416   24419   24421   24416   24419   24420
   24417   24416   24419   24417   24416   24418   24418   24416   24419
   24420   24419   24422   24420   24419   24421   24421   24419   24422
   24423   24426   24429   24423   24426   24428   24423   24426   24427
   24424   24423   24426   24424   24423   24425   24425   24423   24426
   24426   24429   24432   24426   24429   24431   24426   24429   24430
   24427   24426   24429   24427   24426   24428   24428   24426   24429
   24429   24432   24435   24429   24432   24434   24429   24432   24433
   24430   24429   24432   24430   24429   24431   24431   24429   24432
   24432   24435   24438   24432   24435   24437   24432   24435   24436
   24433   24432   24435   24433   24432   24434   24434   24432   24435
   24435   24438   24441   24435   24438   24440   24435   24438   24439
   24436   24435   24438   24436   24435   24437   24437   24435   24438
   24438   24441   24444   24438   24441   24443   24438   24441   24442
   24439   24438   24441   24439   24438   24440   24440   24438   24441
   24441   24444   24447   24441   24444   24446   24441   24444   24445
   24442   24441   24444   24442   24441   24443   24443   24441   24444
   24444   24447   24450   24444   24447   24449   24444   24447   24448
   24445   24444   24447   24445   24444   24446   24446   24444   24447
   24447   24450   24453   24447   24450   24452   24447   24450   24451
   24448   24447   24450   24448   24447   24449   24449   24447   24450
   24450   24453   24456   24450   24453   24455   24450   24453   24454
   24451   24450   24453   24451   24450   24452   24452   24450   24453
   24453   24456   24459   24453   24456   24458   24453   24456   24457
   24454   24453   24456   24454   24453   24455   24455   24453   24456
   24457   24456   24459   24457   24456   24458   24458   24456   24459
   24460   24473   24476   24460   24473   24475   24460   24473   24474
   24460   24469   24472   24460   24469   24471   24460   24469   24470
   24460   24465   24468   24460   24465   24467   24460   24465   24466
   24460   24461   24464   24460   24461   24463   24460   24461   24462
   24461   24460   24473   24461   24460   24469   24461   24460   24465
   24462   24461   24464   24462   24461   24463   24463   24461   24464
   24465   24460   24473   24465   24460   24469   24466   24465   24468
   24466   24465   24467   24467   24465   24468   24469   24460   24473
   24470   24469   24472   24470   24469   24471   24471   24469   24472
   24473   24476   24483   24473   24476   24478   24473   24476   24477
   24474   24473   24476   24474   24473   24475   24475   24473   24476
   24476   24483   24479   24477   24476   24483   24477   24476   24478
   24478   24476   24483   24479   24482   24484   24480   24479   24481
   24480   24479   24482   24480   24479   24483   24481   24479   24482
   24481   24479   24483   24482   24479   24483   24482   24484   24485
   24482   24484   24486   24482   24484   24487   24484   24487   24489
   24484   24487   24495   24484   24487   24488   24485   24484   24487
   24485   24484   24486   24486   24484   24487   24487   24495   24498
   24487   24495   24497   24487   24495   24496   24487   24489   24490
   24488   24487   24489   24488   24487   24495   24489   24490   24491
   24489   24490   24492   24489   24487   24495   24490   24492   24504
   24490   24492   24494   24490   24492   24493   24491   24490   24492
   24492   24504   24507   24492   24504   24506   24492   24504   24505
   24493   24492   24504   24493   24492   24494   24494   24492   24504
   24495   24498   24499   24496   24495   24498   24496   24495   24497
   24497   24495   24498   24498   24499   24500   24498   24499   24501
   24499   24501   24541   24499   24501   24503   24499   24501   24502
   24500   24499   24501   24501   24541   24544   24501   24541   24543
   24501   24541   24542   24502   24501   24541   24502   24501   24503
   24503   24501   24541   24504   24507   24510   24504   24507   24509
   24504   24507   24508   24505   24504   24507   24505   24504   24506
   24506   24504   24507   24507   24510   24513   24507   24510   24512
   24507   24510   24511   24508   24507   24510   24508   24507   24509
   24509   24507   24510   24510   24513   24516   24510   24513   24515
   24510   24513   24514   24511   24510   24513   24511   24510   24512
   24512   24510   24513   24513   24516   24519   24513   24516   24518
   24513   24516   24517   24514   24513   24516   24514   24513   24515
   24515   24513   24516   24516   24519   24522   24516   24519   24521
   24516   24519   24520   24517   24516   24519   24517   24516   24518
   24518   24516   24519   24519   24522   24525   24519   24522   24524
   24519   24522   24523   24520   24519   24522   24520   24519   24521
   24521   24519   24522   24522   24525   24528   24522   24525   24527
   24522   24525   24526   24523   24522   24525   24523   24522   24524
   24524   24522   24525   24525   24528   24531   24525   24528   24530
   24525   24528   24529   24526   24525   24528   24526   24525   24527
   24527   24525   24528   24528   24531   24534   24528   24531   24533
   24528   24531   24532   24529   24528   24531   24529   24528   24530
   24530   24528   24531   24531   24534   24537   24531   24534   24536
   24531   24534   24535   24532   24531   24534   24532   24531   24533
   24533   24531   24534   24534   24537   24540   24534   24537   24539
   24534   24537   24538   24535   24534   24537   24535   24534   24536
   24536   24534   24537   24538   24537   24540   24538   24537   24539
   24539   24537   24540   24541   24544   24547   24541   24544   24546
   24541   24544   24545   24542   24541   24544   24542   24541   24543
   24543   24541   24544   24544   24547   24550   24544   24547   24549
   24544   24547   24548   24545   24544   24547   24545   24544   24546
   24546   24544   24547   24547   24550   24553   24547   24550   24552
   24547   24550   24551   24548   24547   24550   24548   24547   24549
   24549   24547   24550   24550   24553   24556   24550   24553   24555
   24550   24553   24554   24551   24550   24553   24551   24550   24552
   24552   24550   24553   24553   24556   24559   24553   24556   24558
   24553   24556   24557   24554   24553   24556   24554   24553   24555
   24555   24553   24556   24556   24559   24562   24556   24559   24561
   24556   24559   24560   24557   24556   24559   24557   24556   24558
   24558   24556   24559   24559   24562   24565   24559   24562   24564
   24559   24562   24563   24560   24559   24562   24560   24559   24561
   24561   24559   24562   24562   24565   24568   24562   24565   24567
   24562   24565   24566   24563   24562   24565   24563   24562   24564
   24564   24562   24565   24565   24568   24571   24565   24568   24570
   24565   24568   24569   24566   24565   24568   24566   24565   24567
   24567   24565   24568   24568   24571   24574   24568   24571   24573
   24568   24571   24572   24569   24568   24571   24569   24568   24570
   24570   24568   24571   24571   24574   24577   24571   24574   24576
   24571   24574   24575   24572   24571   24574   24572   24571   24573
   24573   24571   24574   24575   24574   24577   24575   24574   24576
   24576   24574   24577   24578   24591   24594   24578   24591   24593
   24578   24591   24592   24578   24587   24590   24578   24587   24589
   24578   24587   24588   24578   24583   24586   24578   24583   24585
   24578   24583   24584   24578   24579   24582   24578   24579   24581
   24578   24579   24580   24579   24578   24591   24579   24578   24587
   24579   24578   24583   24580   24579   24582   24580   24579   24581
   24581   24579   24582   24583   24578   24591   24583   24578   24587
   24584   24583   24586   24584   24583   24585   24585   24583   24586
   24587   24578   24591   24588   24587   24590   24588   24587   24589
   24589   24587   24590   24591   24594   24601   24591   24594   24596
   24591   24594   24595   24592   24591   24594   24592   24591   24593
   24593   24591   24594   24594   24601   24597   24595   24594   24601
   24595   24594   24596   24596   24594   24601   24597   24600   24602
   24598   24597   24599   24598   24597   24600   24598   24597   24601
   24599   24597   24600   24599   24597   24601   24600   24597   24601
   24600   24602   24603   24600   24602   24604   24600   24602   24605
   24602   24605   24607   24602   24605   24613   24602   24605   24606
   24603   24602   24605   24603   24602   24604   24604   24602   24605
   24605   24613   24616   24605   24613   24615   24605   24613   24614
   24605   24607   24608   24606   24605   24607   24606   24605   24613
   24607   24608   24609   24607   24608   24610   24607   24605   24613
   24608   24610   24622   24608   24610   24612   24608   24610   24611
   24609   24608   24610   24610   24622   24625   24610   24622   24624
   24610   24622   24623   24611   24610   24622   24611   24610   24612
   24612   24610   24622   24613   24616   24617   24614   24613   24616
   24614   24613   24615   24615   24613   24616   24616   24617   24618
   24616   24617   24619   24617   24619   24659   24617   24619   24621
   24617   24619   24620   24618   24617   24619   24619   24659   24662
   24619   24659   24661   24619   24659   24660   24620   24619   24659
   24620   24619   24621   24621   24619   24659   24622   24625   24628
   24622   24625   24627   24622   24625   24626   24623   24622   24625
   24623   24622   24624   24624   24622   24625   24625   24628   24631
   24625   24628   24630   24625   24628   24629   24626   24625   24628
   24626   24625   24627   24627   24625   24628   24628   24631   24634
   24628   24631   24633   24628   24631   24632   24629   24628   24631
   24629   24628   24630   24630   24628   24631   24631   24634   24637
   24631   24634   24636   24631   24634   24635   24632   24631   24634
   24632   24631   24633   24633   24631   24634   24634   24637   24640
   24634   24637   24639   24634   24637   24638   24635   24634   24637
   24635   24634   24636   24636   24634   24637   24637   24640   24643
   24637   24640   24642   24637   24640   24641   24638   24637   24640
   24638   24637   24639   24639   24637   24640   24640   24643   24646
   24640   24643   24645   24640   24643   24644   24641   24640   24643
   24641   24640   24642   24642   24640   24643   24643   24646   24649
   24643   24646   24648   24643   24646   24647   24644   24643   24646
   24644   24643   24645   24645   24643   24646   24646   24649   24652
   24646   24649   24651   24646   24649   24650   24647   24646   24649
   24647   24646   24648   24648   24646   24649   24649   24652   24655
   24649   24652   24654   24649   24652   24653   24650   24649   24652
   24650   24649   24651   24651   24649   24652   24652   24655   24658
   24652   24655   24657   24652   24655   24656   24653   24652   24655
   24653   24652   24654   24654   24652   24655   24656   24655   24658
   24656   24655   24657   24657   24655   24658   24659   24662   24665
   24659   24662   24664   24659   24662   24663   24660   24659   24662
   24660   24659   24661   24661   24659   24662   24662   24665   24668
   24662   24665   24667   24662   24665   24666   24663   24662   24665
   24663   24662   24664   24664   24662   24665   24665   24668   24671
   24665   24668   24670   24665   24668   24669   24666   24665   24668
   24666   24665   24667   24667   24665   24668   24668   24671   24674
   24668   24671   24673   24668   24671   24672   24669   24668   24671
   24669   24668   24670   24670   24668   24671   24671   24674   24677
   24671   24674   24676   24671   24674   24675   24672   24671   24674
   24672   24671   24673   24673   24671   24674   24674   24677   24680
   24674   24677   24679   24674   24677   24678   24675   24674   24677
   24675   24674   24676   24676   24674   24677   24677   24680   24683
   24677   24680   24682   24677   24680   24681   24678   24677   24680
   24678   24677   24679   24679   24677   24680   24680   24683   24686
   24680   24683   24685   24680   24683   24684   24681   24680   24683
   24681   24680   24682   24682   24680   24683   24683   24686   24689
   24683   24686   24688   24683   24686   24687   24684   24683   24686
   24684   24683   24685   24685   24683   24686   24686   24689   24692
   24686   24689   24691   24686   24689   24690   24687   24686   24689
   24687   24686   24688   24688   24686   24689   24689   24692   24695
   24689   24692   24694   24689   24692   24693   24690   24689   24692
   24690   24689   24691   24691   24689   24692   24693   24692   24695
   24693   24692   24694   24694   24692   24695   24696   24709   24712
   24696   24709   24711   24696   24709   24710   24696   24705   24708
   24696   24705   24707   24696   24705   24706   24696   24701   24704
   24696   24701   24703   24696   24701   24702   24696   24697   24700
   24696   24697   24699   24696   24697   24698   24697   24696   24709
   24697   24696   24705   24697   24696   24701   24698   24697   24700
   24698   24697   24699   24699   24697   24700   24701   24696   24709
   24701   24696   24705   24702   24701   24704   24702   24701   24703
   24703   24701   24704   24705   24696   24709   24706   24705   24708
   24706   24705   24707   24707   24705   24708   24709   24712   24719
   24709   24712   24714   24709   24712   24713   24710   24709   24712
   24710   24709   24711   24711   24709   24712   24712   24719   24715
   24713   24712   24719   24713   24712   24714   24714   24712   24719
   24715   24718   24720   24716   24715   24717   24716   24715   24718
   24716   24715   24719   24717   24715   24718   24717   24715   24719
   24718   24715   24719   24718   24720   24721   24718   24720   24722
   24718   24720   24723   24720   24723   24725   24720   24723   24731
   24720   24723   24724   24721   24720   24723   24721   24720   24722
   24722   24720   24723   24723   24731   24734   24723   24731   24733
   24723   24731   24732   24723   24725   24726   24724   24723   24725
   24724   24723   24731   24725   24726   24727   24725   24726   24728
   24725   24723   24731   24726   24728   24740   24726   24728   24730
   24726   24728   24729   24727   24726   24728   24728   24740   24743
   24728   24740   24742   24728   24740   24741   24729   24728   24740
   24729   24728   24730   24730   24728   24740   24731   24734   24735
   24732   24731   24734   24732   24731   24733   24733   24731   24734
   24734   24735   24736   24734   24735   24737   24735   24737   24777
   24735   24737   24739   24735   24737   24738   24736   24735   24737
   24737   24777   24780   24737   24777   24779   24737   24777   24778
   24738   24737   24777   24738   24737   24739   24739   24737   24777
   24740   24743   24746   24740   24743   24745   24740   24743   24744
   24741   24740   24743   24741   24740   24742   24742   24740   24743
   24743   24746   24749   24743   24746   24748   24743   24746   24747
   24744   24743   24746   24744   24743   24745   24745   24743   24746
   24746   24749   24752   24746   24749   24751   24746   24749   24750
   24747   24746   24749   24747   24746   24748   24748   24746   24749
   24749   24752   24755   24749   24752   24754   24749   24752   24753
   24750   24749   24752   24750   24749   24751   24751   24749   24752
   24752   24755   24758   24752   24755   24757   24752   24755   24756
   24753   24752   24755   24753   24752   24754   24754   24752   24755
   24755   24758   24761   24755   24758   24760   24755   24758   24759
   24756   24755   24758   24756   24755   24757   24757   24755   24758
   24758   24761   24764   24758   24761   24763   24758   24761   24762
   24759   24758   24761   24759   24758   24760   24760   24758   24761
   24761   24764   24767   24761   24764   24766   24761   24764   24765
   24762   24761   24764   24762   24761   24763   24763   24761   24764
   24764   24767   24770   24764   24767   24769   24764   24767   24768
   24765   24764   24767   24765   24764   24766   24766   24764   24767
   24767   24770   24773   24767   24770   24772   24767   24770   24771
   24768   24767   24770   24768   24767   24769   24769   24767   24770
   24770   24773   24776   24770   24773   24775   24770   24773   24774
   24771   24770   24773   24771   24770   24772   24772   24770   24773
   24774   24773   24776   24774   24773   24775   24775   24773   24776
   24777   24780   24783   24777   24780   24782   24777   24780   24781
   24778   24777   24780   24778   24777   24779   24779   24777   24780
   24780   24783   24786   24780   24783   24785   24780   24783   24784
   24781   24780   24783   24781   24780   24782   24782   24780   24783
   24783   24786   24789   24783   24786   24788   24783   24786   24787
   24784   24783   24786   24784   24783   24785   24785   24783   24786
   24786   24789   24792   24786   24789   24791   24786   24789   24790
   24787   24786   24789   24787   24786   24788   24788   24786   24789
   24789   24792   24795   24789   24792   24794   24789   24792   24793
   24790   24789   24792   24790   24789   24791   24791   24789   24792
   24792   24795   24798   24792   24795   24797   24792   24795   24796
   24793   24792   24795   24793   24792   24794   24794   24792   24795
   24795   24798   24801   24795   24798   24800   24795   24798   24799
   24796   24795   24798   24796   24795   24797   24797   24795   24798
   24798   24801   24804   24798   24801   24803   24798   24801   24802
   24799   24798   24801   24799   24798   24800   24800   24798   24801
   24801   24804   24807   24801   24804   24806   24801   24804   24805
   24802   24801   24804   24802   24801   24803   24803   24801   24804
   24804   24807   24810   24804   24807   24809   24804   24807   24808
   24805   24804   24807   24805   24804   24806   24806   24804   24807
   24807   24810   24813   24807   24810   24812   24807   24810   24811
   24808   24807   24810   24808   24807   24809   24809   24807   24810
   24811   24810   24813   24811   24810   24812   24812   24810   24813
   24814   24827   24830   24814   24827   24829   24814   24827   24828
   24814   24823   24826   24814   24823   24825   24814   24823   24824
   24814   24819   24822   24814   24819   24821   24814   24819   24820
   24814   24815   24818   24814   24815   24817   24814   24815   24816
   24815   24814   24827   24815   24814   24823   24815   24814   24819
   24816   24815   24818   24816   24815   24817   24817   24815   24818
   24819   24814   24827   24819   24814   24823   24820   24819   24822
   24820   24819   24821   24821   24819   24822   24823   24814   24827
   24824   24823   24826   24824   24823   24825   24825   24823   24826
   24827   24830   24837   24827   24830   24832   24827   24830   24831
   24828   24827   24830   24828   24827   24829   24829   24827   24830
   24830   24837   24833   24831   24830   24837   24831   24830   24832
   24832   24830   24837   24833   24836   24838   24834   24833   24835
   24834   24833   24836   24834   24833   24837   24835   24833   24836
   24835   24833   24837   24836   24833   24837   24836   24838   24839
   24836   24838   24840   24836   24838   24841   24838   24841   24843
   24838   24841   24849   24838   24841   24842   24839   24838   24841
   24839   24838   24840   24840   24838   24841   24841   24849   24852
   24841   24849   24851   24841   24849   24850   24841   24843   24844
   24842   24841   24843   24842   24841   24849   24843   24844   24845
   24843   24844   24846   24843   24841   24849   24844   24846   24858
   24844   24846   24848   24844   24846   24847   24845   24844   24846
   24846   24858   24861   24846   24858   24860   24846   24858   24859
   24847   24846   24858   24847   24846   24848   24848   24846   24858
   24849   24852   24853   24850   24849   24852   24850   24849   24851
   24851   24849   24852   24852   24853   24854   24852   24853   24855
   24853   24855   24895   24853   24855   24857   24853   24855   24856
   24854   24853   24855   24855   24895   24898   24855   24895   24897
   24855   24895   24896   24856   24855   24895   24856   24855   24857
   24857   24855   24895   24858   24861   24864   24858   24861   24863
   24858   24861   24862   24859   24858   24861   24859   24858   24860
   24860   24858   24861   24861   24864   24867   24861   24864   24866
   24861   24864   24865   24862   24861   24864   24862   24861   24863
   24863   24861   24864   24864   24867   24870   24864   24867   24869
   24864   24867   24868   24865   24864   24867   24865   24864   24866
   24866   24864   24867   24867   24870   24873   24867   24870   24872
   24867   24870   24871   24868   24867   24870   24868   24867   24869
   24869   24867   24870   24870   24873   24876   24870   24873   24875
   24870   24873   24874   24871   24870   24873   24871   24870   24872
   24872   24870   24873   24873   24876   24879   24873   24876   24878
   24873   24876   24877   24874   24873   24876   24874   24873   24875
   24875   24873   24876   24876   24879   24882   24876   24879   24881
   24876   24879   24880   24877   24876   24879   24877   24876   24878
   24878   24876   24879   24879   24882   24885   24879   24882   24884
   24879   24882   24883   24880   24879   24882   24880   24879   24881
   24881   24879   24882   24882   24885   24888   24882   24885   24887
   24882   24885   24886   24883   24882   24885   24883   24882   24884
   24884   24882   24885   24885   24888   24891   24885   24888   24890
   24885   24888   24889   24886   24885   24888   24886   24885   24887
   24887   24885   24888   24888   24891   24894   24888   24891   24893
   24888   24891   24892   24889   24888   24891   24889   24888   24890
   24890   24888   24891   24892   24891   24894   24892   24891   24893
   24893   24891   24894   24895   24898   24901   24895   24898   24900
   24895   24898   24899   24896   24895   24898   24896   24895   24897
   24897   24895   24898   24898   24901   24904   24898   24901   24903
   24898   24901   24902   24899   24898   24901   24899   24898   24900
   24900   24898   24901   24901   24904   24907   24901   24904   24906
   24901   24904   24905   24902   24901   24904   24902   24901   24903
   24903   24901   24904   24904   24907   24910   24904   24907   24909
   24904   24907   24908   24905   24904   24907   24905   24904   24906
   24906   24904   24907   24907   24910   24913   24907   24910   24912
   24907   24910   24911   24908   24907   24910   24908   24907   24909
   24909   24907   24910   24910   24913   24916   24910   24913   24915
   24910   24913   24914   24911   24910   24913   24911   24910   24912
   24912   24910   24913   24913   24916   24919   24913   24916   24918
   24913   24916   24917   24914   24913   24916   24914   24913   24915
   24915   24913   24916   24916   24919   24922   24916   24919   24921
   24916   24919   24920   24917   24916   24919   24917   24916   24918
   24918   24916   24919   24919   24922   24925   24919   24922   24924
   24919   24922   24923   24920   24919   24922   24920   24919   24921
   24921   24919   24922   24922   24925   24928   24922   24925   24927
   24922   24925   24926   24923   24922   24925   24923   24922   24924
   24924   24922   24925   24925   24928   24931   24925   24928   24930
   24925   24928   24929   24926   24925   24928   24926   24925   24927
   24927   24925   24928   24929   24928   24931   24929   24928   24930
   24930   24928   24931   24932   24945   24948   24932   24945   24947
   24932   24945   24946   24932   24941   24944   24932   24941   24943
   24932   24941   24942   24932   24937   24940   24932   24937   24939
   24932   24937   24938   24932   24933   24936   24932   24933   24935
   24932   24933   24934   24933   24932   24945   24933   24932   24941
   24933   24932   24937   24934   24933   24936   24934   24933   24935
   24935   24933   24936   24937   24932   24945   24937   24932   24941
   24938   24937   24940   24938   24937   24939   24939   24937   24940
   24941   24932   24945   24942   24941   24944   24942   24941   24943
   24943   24941   24944   24945   24948   24955   24945   24948   24950
   24945   24948   24949   24946   24945   24948   24946   24945   24947
   24947   24945   24948   24948   24955   24951   24949   24948   24955
   24949   24948   24950   24950   24948   24955   24951   24954   24956
   24952   24951   24953   24952   24951   24954   24952   24951   24955
   24953   24951   24954   24953   24951   24955   24954   24951   24955
   24954   24956   24957   24954   24956   24958   24954   24956   24959
   24956   24959   24961   24956   24959   24967   24956   24959   24960
   24957   24956   24959   24957   24956   24958   24958   24956   24959
   24959   24967   24970   24959   24967   24969   24959   24967   24968
   24959   24961   24962   24960   24959   24961   24960   24959   24967
   24961   24962   24963   24961   24962   24964   24961   24959   24967
   24962   24964   24976   24962   24964   24966   24962   24964   24965
   24963   24962   24964   24964   24976   24979   24964   24976   24978
   24964   24976   24977   24965   24964   24976   24965   24964   24966
   24966   24964   24976   24967   24970   24971   24968   24967   24970
   24968   24967   24969   24969   24967   24970   24970   24971   24972
   24970   24971   24973   24971   24973   25013   24971   24973   24975
   24971   24973   24974   24972   24971   24973   24973   25013   25016
   24973   25013   25015   24973   25013   25014   24974   24973   25013
   24974   24973   24975   24975   24973   25013   24976   24979   24982
   24976   24979   24981   24976   24979   24980   24977   24976   24979
   24977   24976   24978   24978   24976   24979   24979   24982   24985
   24979   24982   24984   24979   24982   24983   24980   24979   24982
   24980   24979   24981   24981   24979   24982   24982   24985   24988
   24982   24985   24987   24982   24985   24986   24983   24982   24985
   24983   24982   24984   24984   24982   24985   24985   24988   24991
   24985   24988   24990   24985   24988   24989   24986   24985   24988
   24986   24985   24987   24987   24985   24988   24988   24991   24994
   24988   24991   24993   24988   24991   24992   24989   24988   24991
   24989   24988   24990   24990   24988   24991   24991   24994   24997
   24991   24994   24996   24991   24994   24995   24992   24991   24994
   24992   24991   24993   24993   24991   24994   24994   24997   25000
   24994   24997   24999   24994   24997   24998   24995   24994   24997
   24995   24994   24996   24996   24994   24997   24997   25000   25003
   24997   25000   25002   24997   25000   25001   24998   24997   25000
   24998   24997   24999   24999   24997   25000   25000   25003   25006
   25000   25003   25005   25000   25003   25004   25001   25000   25003
   25001   25000   25002   25002   25000   25003   25003   25006   25009
   25003   25006   25008   25003   25006   25007   25004   25003   25006
   25004   25003   25005   25005   25003   25006   25006   25009   25012
   25006   25009   25011   25006   25009   25010   25007   25006   25009
   25007   25006   25008   25008   25006   25009   25010   25009   25012
   25010   25009   25011   25011   25009   25012   25013   25016   25019
   25013   25016   25018   25013   25016   25017   25014   25013   25016
   25014   25013   25015   25015   25013   25016   25016   25019   25022
   25016   25019   25021   25016   25019   25020   25017   25016   25019
   25017   25016   25018   25018   25016   25019   25019   25022   25025
   25019   25022   25024   25019   25022   25023   25020   25019   25022
   25020   25019   25021   25021   25019   25022   25022   25025   25028
   25022   25025   25027   25022   25025   25026   25023   25022   25025
   25023   25022   25024   25024   25022   25025   25025   25028   25031
   25025   25028   25030   25025   25028   25029   25026   25025   25028
   25026   25025   25027   25027   25025   25028   25028   25031   25034
   25028   25031   25033   25028   25031   25032   25029   25028   25031
   25029   25028   25030   25030   25028   25031   25031   25034   25037
   25031   25034   25036   25031   25034   25035   25032   25031   25034
   25032   25031   25033   25033   25031   25034   25034   25037   25040
   25034   25037   25039   25034   25037   25038   25035   25034   25037
   25035   25034   25036   25036   25034   25037   25037   25040   25043
   25037   25040   25042   25037   25040   25041   25038   25037   25040
   25038   25037   25039   25039   25037   25040   25040   25043   25046
   25040   25043   25045   25040   25043   25044   25041   25040   25043
   25041   25040   25042   25042   25040   25043   25043   25046   25049
   25043   25046   25048   25043   25046   25047   25044   25043   25046
   25044   25043   25045   25045   25043   25046   25047   25046   25049
   25047   25046   25048   25048   25046   25049   25050   25063   25066
   25050   25063   25065   25050   25063   25064   25050   25059   25062
   25050   25059   25061   25050   25059   25060   25050   25055   25058
   25050   25055   25057   25050   25055   25056   25050   25051   25054
   25050   25051   25053   25050   25051   25052   25051   25050   25063
   25051   25050   25059   25051   25050   25055   25052   25051   25054
   25052   25051   25053   25053   25051   25054   25055   25050   25063
   25055   25050   25059   25056   25055   25058   25056   25055   25057
   25057   25055   25058   25059   25050   25063   25060   25059   25062
   25060   25059   25061   25061   25059   25062   25063   25066   25073
   25063   25066   25068   25063   25066   25067   25064   25063   25066
   25064   25063   25065   25065   25063   25066   25066   25073   25069
   25067   25066   25073   25067   25066   25068   25068   25066   25073
   25069   25072   25074   25070   25069   25071   25070   25069   25072
   25070   25069   25073   25071   25069   25072   25071   25069   25073
   25072   25069   25073   25072   25074   25075   25072   25074   25076
   25072   25074   25077   25074   25077   25079   25074   25077   25085
   25074   25077   25078   25075   25074   25077   25075   25074   25076
   25076   25074   25077   25077   25085   25088   25077   25085   25087
   25077   25085   25086   25077   25079   25080   25078   25077   25079
   25078   25077   25085   25079   25080   25081   25079   25080   25082
   25079   25077   25085   25080   25082   25094   25080   25082   25084
   25080   25082   25083   25081   25080   25082   25082   25094   25097
   25082   25094   25096   25082   25094   25095   25083   25082   25094
   25083   25082   25084   25084   25082   25094   25085   25088   25089
   25086   25085   25088   25086   25085   25087   25087   25085   25088
   25088   25089   25090   25088   25089   25091   25089   25091   25131
   25089   25091   25093   25089   25091   25092   25090   25089   25091
   25091   25131   25134   25091   25131   25133   25091   25131   25132
   25092   25091   25131   25092   25091   25093   25093   25091   25131
   25094   25097   25100   25094   25097   25099   25094   25097   25098
   25095   25094   25097   25095   25094   25096   25096   25094   25097
   25097   25100   25103   25097   25100   25102   25097   25100   25101
   25098   25097   25100   25098   25097   25099   25099   25097   25100
   25100   25103   25106   25100   25103   25105   25100   25103   25104
   25101   25100   25103   25101   25100   25102   25102   25100   25103
   25103   25106   25109   25103   25106   25108   25103   25106   25107
   25104   25103   25106   25104   25103   25105   25105   25103   25106
   25106   25109   25112   25106   25109   25111   25106   25109   25110
   25107   25106   25109   25107   25106   25108   25108   25106   25109
   25109   25112   25115   25109   25112   25114   25109   25112   25113
   25110   25109   25112   25110   25109   25111   25111   25109   25112
   25112   25115   25118   25112   25115   25117   25112   25115   25116
   25113   25112   25115   25113   25112   25114   25114   25112   25115
   25115   25118   25121   25115   25118   25120   25115   25118   25119
   25116   25115   25118   25116   25115   25117   25117   25115   25118
   25118   25121   25124   25118   25121   25123   25118   25121   25122
   25119   25118   25121   25119   25118   25120   25120   25118   25121
   25121   25124   25127   25121   25124   25126   25121   25124   25125
   25122   25121   25124   25122   25121   25123   25123   25121   25124
   25124   25127   25130   25124   25127   25129   25124   25127   25128
   25125   25124   25127   25125   25124   25126   25126   25124   25127
   25128   25127   25130   25128   25127   25129   25129   25127   25130
   25131   25134   25137   25131   25134   25136   25131   25134   25135
   25132   25131   25134   25132   25131   25133   25133   25131   25134
   25134   25137   25140   25134   25137   25139   25134   25137   25138
   25135   25134   25137   25135   25134   25136   25136   25134   25137
   25137   25140   25143   25137   25140   25142   25137   25140   25141
   25138   25137   25140   25138   25137   25139   25139   25137   25140
   25140   25143   25146   25140   25143   25145   25140   25143   25144
   25141   25140   25143   25141   25140   25142   25142   25140   25143
   25143   25146   25149   25143   25146   25148   25143   25146   25147
   25144   25143   25146   25144   25143   25145   25145   25143   25146
   25146   25149   25152   25146   25149   25151   25146   25149   25150
   25147   25146   25149   25147   25146   25148   25148   25146   25149
   25149   25152   25155   25149   25152   25154   25149   25152   25153
   25150   25149   25152   25150   25149   25151   25151   25149   25152
   25152   25155   25158   25152   25155   25157   25152   25155   25156
   25153   25152   25155   25153   25152   25154   25154   25152   25155
   25155   25158   25161   25155   25158   25160   25155   25158   25159
   25156   25155   25158   25156   25155   25157   25157   25155   25158
   25158   25161   25164   25158   25161   25163   25158   25161   25162
   25159   25158   25161   25159   25158   25160   25160   25158   25161
   25161   25164   25167   25161   25164   25166   25161   25164   25165
   25162   25161   25164   25162   25161   25163   25163   25161   25164
   25165   25164   25167   25165   25164   25166   25166   25164   25167
   25168   25181   25184   25168   25181   25183   25168   25181   25182
   25168   25177   25180   25168   25177   25179   25168   25177   25178
   25168   25173   25176   25168   25173   25175   25168   25173   25174
   25168   25169   25172   25168   25169   25171   25168   25169   25170
   25169   25168   25181   25169   25168   25177   25169   25168   25173
   25170   25169   25172   25170   25169   25171   25171   25169   25172
   25173   25168   25181   25173   25168   25177   25174   25173   25176
   25174   25173   25175   25175   25173   25176   25177   25168   25181
   25178   25177   25180   25178   25177   25179   25179   25177   25180
   25181   25184   25191   25181   25184   25186   25181   25184   25185
   25182   25181   25184   25182   25181   25183   25183   25181   25184
   25184   25191   25187   25185   25184   25191   25185   25184   25186
   25186   25184   25191   25187   25190   25192   25188   25187   25189
   25188   25187   25190   25188   25187   25191   25189   25187   25190
   25189   25187   25191   25190   25187   25191   25190   25192   25193
   25190   25192   25194   25190   25192   25195   25192   25195   25197
   25192   25195   25203   25192   25195   25196   25193   25192   25195
   25193   25192   25194   25194   25192   25195   25195   25203   25206
   25195   25203   25205   25195   25203   25204   25195   25197   25198
   25196   25195   25197   25196   25195   25203   25197   25198   25199
   25197   25198   25200   25197   25195   25203   25198   25200   25212
   25198   25200   25202   25198   25200   25201   25199   25198   25200
   25200   25212   25215   25200   25212   25214   25200   25212   25213
   25201   25200   25212   25201   25200   25202   25202   25200   25212
   25203   25206   25207   25204   25203   25206   25204   25203   25205
   25205   25203   25206   25206   25207   25208   25206   25207   25209
   25207   25209   25249   25207   25209   25211   25207   25209   25210
   25208   25207   25209   25209   25249   25252   25209   25249   25251
   25209   25249   25250   25210   25209   25249   25210   25209   25211
   25211   25209   25249   25212   25215   25218   25212   25215   25217
   25212   25215   25216   25213   25212   25215   25213   25212   25214
   25214   25212   25215   25215   25218   25221   25215   25218   25220
   25215   25218   25219   25216   25215   25218   25216   25215   25217
   25217   25215   25218   25218   25221   25224   25218   25221   25223
   25218   25221   25222   25219   25218   25221   25219   25218   25220
   25220   25218   25221   25221   25224   25227   25221   25224   25226
   25221   25224   25225   25222   25221   25224   25222   25221   25223
   25223   25221   25224   25224   25227   25230   25224   25227   25229
   25224   25227   25228   25225   25224   25227   25225   25224   25226
   25226   25224   25227   25227   25230   25233   25227   25230   25232
   25227   25230   25231   25228   25227   25230   25228   25227   25229
   25229   25227   25230   25230   25233   25236   25230   25233   25235
   25230   25233   25234   25231   25230   25233   25231   25230   25232
   25232   25230   25233   25233   25236   25239   25233   25236   25238
   25233   25236   25237   25234   25233   25236   25234   25233   25235
   25235   25233   25236   25236   25239   25242   25236   25239   25241
   25236   25239   25240   25237   25236   25239   25237   25236   25238
   25238   25236   25239   25239   25242   25245   25239   25242   25244
   25239   25242   25243   25240   25239   25242   25240   25239   25241
   25241   25239   25242   25242   25245   25248   25242   25245   25247
   25242   25245   25246   25243   25242   25245   25243   25242   25244
   25244   25242   25245   25246   25245   25248   25246   25245   25247
   25247   25245   25248   25249   25252   25255   25249   25252   25254
   25249   25252   25253   25250   25249   25252   25250   25249   25251
   25251   25249   25252   25252   25255   25258   25252   25255   25257
   25252   25255   25256   25253   25252   25255   25253   25252   25254
   25254   25252   25255   25255   25258   25261   25255   25258   25260
   25255   25258   25259   25256   25255   25258   25256   25255   25257
   25257   25255   25258   25258   25261   25264   25258   25261   25263
   25258   25261   25262   25259   25258   25261   25259   25258   25260
   25260   25258   25261   25261   25264   25267   25261   25264   25266
   25261   25264   25265   25262   25261   25264   25262   25261   25263
   25263   25261   25264   25264   25267   25270   25264   25267   25269
   25264   25267   25268   25265   25264   25267   25265   25264   25266
   25266   25264   25267   25267   25270   25273   25267   25270   25272
   25267   25270   25271   25268   25267   25270   25268   25267   25269
   25269   25267   25270   25270   25273   25276   25270   25273   25275
   25270   25273   25274   25271   25270   25273   25271   25270   25272
   25272   25270   25273   25273   25276   25279   25273   25276   25278
   25273   25276   25277   25274   25273   25276   25274   25273   25275
   25275   25273   25276   25276   25279   25282   25276   25279   25281
   25276   25279   25280   25277   25276   25279   25277   25276   25278
   25278   25276   25279   25279   25282   25285   25279   25282   25284
   25279   25282   25283   25280   25279   25282   25280   25279   25281
   25281   25279   25282   25283   25282   25285   25283   25282   25284
   25284   25282   25285   25286   25299   25302   25286   25299   25301
   25286   25299   25300   25286   25295   25298   25286   25295   25297
   25286   25295   25296   25286   25291   25294   25286   25291   25293
   25286   25291   25292   25286   25287   25290   25286   25287   25289
   25286   25287   25288   25287   25286   25299   25287   25286   25295
   25287   25286   25291   25288   25287   25290   25288   25287   25289
   25289   25287   25290   25291   25286   25299   25291   25286   25295
   25292   25291   25294   25292   25291   25293   25293   25291   25294
   25295   25286   25299   25296   25295   25298   25296   25295   25297
   25297   25295   25298   25299   25302   25309   25299   25302   25304
   25299   25302   25303   25300   25299   25302   25300   25299   25301
   25301   25299   25302   25302   25309   25305   25303   25302   25309
   25303   25302   25304   25304   25302   25309   25305   25308   25310
   25306   25305   25307   25306   25305   25308   25306   25305   25309
   25307   25305   25308   25307   25305   25309   25308   25305   25309
   25308   25310   25311   25308   25310   25312   25308   25310   25313
   25310   25313   25315   25310   25313   25321   25310   25313   25314
   25311   25310   25313   25311   25310   25312   25312   25310   25313
   25313   25321   25324   25313   25321   25323   25313   25321   25322
   25313   25315   25316   25314   25313   25315   25314   25313   25321
   25315   25316   25317   25315   25316   25318   25315   25313   25321
   25316   25318   25330   25316   25318   25320   25316   25318   25319
   25317   25316   25318   25318   25330   25333   25318   25330   25332
   25318   25330   25331   25319   25318   25330   25319   25318   25320
   25320   25318   25330   25321   25324   25325   25322   25321   25324
   25322   25321   25323   25323   25321   25324   25324   25325   25326
   25324   25325   25327   25325   25327   25367   25325   25327   25329
   25325   25327   25328   25326   25325   25327   25327   25367   25370
   25327   25367   25369   25327   25367   25368   25328   25327   25367
   25328   25327   25329   25329   25327   25367   25330   25333   25336
   25330   25333   25335   25330   25333   25334   25331   25330   25333
   25331   25330   25332   25332   25330   25333   25333   25336   25339
   25333   25336   25338   25333   25336   25337   25334   25333   25336
   25334   25333   25335   25335   25333   25336   25336   25339   25342
   25336   25339   25341   25336   25339   25340   25337   25336   25339
   25337   25336   25338   25338   25336   25339   25339   25342   25345
   25339   25342   25344   25339   25342   25343   25340   25339   25342
   25340   25339   25341   25341   25339   25342   25342   25345   25348
   25342   25345   25347   25342   25345   25346   25343   25342   25345
   25343   25342   25344   25344   25342   25345   25345   25348   25351
   25345   25348   25350   25345   25348   25349   25346   25345   25348
   25346   25345   25347   25347   25345   25348   25348   25351   25354
   25348   25351   25353   25348   25351   25352   25349   25348   25351
   25349   25348   25350   25350   25348   25351   25351   25354   25357
   25351   25354   25356   25351   25354   25355   25352   25351   25354
   25352   25351   25353   25353   25351   25354   25354   25357   25360
   25354   25357   25359   25354   25357   25358   25355   25354   25357
   25355   25354   25356   25356   25354   25357   25357   25360   25363
   25357   25360   25362   25357   25360   25361   25358   25357   25360
   25358   25357   25359   25359   25357   25360   25360   25363   25366
   25360   25363   25365   25360   25363   25364   25361   25360   25363
   25361   25360   25362   25362   25360   25363   25364   25363   25366
   25364   25363   25365   25365   25363   25366   25367   25370   25373
   25367   25370   25372   25367   25370   25371   25368   25367   25370
   25368   25367   25369   25369   25367   25370   25370   25373   25376
   25370   25373   25375   25370   25373   25374   25371   25370   25373
   25371   25370   25372   25372   25370   25373   25373   25376   25379
   25373   25376   25378   25373   25376   25377   25374   25373   25376
   25374   25373   25375   25375   25373   25376   25376   25379   25382
   25376   25379   25381   25376   25379   25380   25377   25376   25379
   25377   25376   25378   25378   25376   25379   25379   25382   25385
   25379   25382   25384   25379   25382   25383   25380   25379   25382
   25380   25379   25381   25381   25379   25382   25382   25385   25388
   25382   25385   25387   25382   25385   25386   25383   25382   25385
   25383   25382   25384   25384   25382   25385   25385   25388   25391
   25385   25388   25390   25385   25388   25389   25386   25385   25388
   25386   25385   25387   25387   25385   25388   25388   25391   25394
   25388   25391   25393   25388   25391   25392   25389   25388   25391
   25389   25388   25390   25390   25388   25391   25391   25394   25397
   25391   25394   25396   25391   25394   25395   25392   25391   25394
   25392   25391   25393   25393   25391   25394   25394   25397   25400
   25394   25397   25399   25394   25397   25398   25395   25394   25397
   25395   25394   25396   25396   25394   25397   25397   25400   25403
   25397   25400   25402   25397   25400   25401   25398   25397   25400
   25398   25397   25399   25399   25397   25400   25401   25400   25403
   25401   25400   25402   25402   25400   25403   25404   25417   25420
   25404   25417   25419   25404   25417   25418   25404   25413   25416
   25404   25413   25415   25404   25413   25414   25404   25409   25412
   25404   25409   25411   25404   25409   25410   25404   25405   25408
   25404   25405   25407   25404   25405   25406   25405   25404   25417
   25405   25404   25413   25405   25404   25409   25406   25405   25408
   25406   25405   25407   25407   25405   25408   25409   25404   25417
   25409   25404   25413   25410   25409   25412   25410   25409   25411
   25411   25409   25412   25413   25404   25417   25414   25413   25416
   25414   25413   25415   25415   25413   25416   25417   25420   25427
   25417   25420   25422   25417   25420   25421   25418   25417   25420
   25418   25417   25419   25419   25417   25420   25420   25427   25423
   25421   25420   25427   25421   25420   25422   25422   25420   25427
   25423   25426   25428   25424   25423   25425   25424   25423   25426
   25424   25423   25427   25425   25423   25426   25425   25423   25427
   25426   25423   25427   25426   25428   25429   25426   25428   25430
   25426   25428   25431   25428   25431   25433   25428   25431   25439
   25428   25431   25432   25429   25428   25431   25429   25428   25430
   25430   25428   25431   25431   25439   25442   25431   25439   25441
   25431   25439   25440   25431   25433   25434   25432   25431   25433
   25432   25431   25439   25433   25434   25435   25433   25434   25436
   25433   25431   25439   25434   25436   25448   25434   25436   25438
   25434   25436   25437   25435   25434   25436   25436   25448   25451
   25436   25448   25450   25436   25448   25449   25437   25436   25448
   25437   25436   25438   25438   25436   25448   25439   25442   25443
   25440   25439   25442   25440   25439   25441   25441   25439   25442
   25442   25443   25444   25442   25443   25445   25443   25445   25485
   25443   25445   25447   25443   25445   25446   25444   25443   25445
   25445   25485   25488   25445   25485   25487   25445   25485   25486
   25446   25445   25485   25446   25445   25447   25447   25445   25485
   25448   25451   25454   25448   25451   25453   25448   25451   25452
   25449   25448   25451   25449   25448   25450   25450   25448   25451
   25451   25454   25457   25451   25454   25456   25451   25454   25455
   25452   25451   25454   25452   25451   25453   25453   25451   25454
   25454   25457   25460   25454   25457   25459   25454   25457   25458
   25455   25454   25457   25455   25454   25456   25456   25454   25457
   25457   25460   25463   25457   25460   25462   25457   25460   25461
   25458   25457   25460   25458   25457   25459   25459   25457   25460
   25460   25463   25466   25460   25463   25465   25460   25463   25464
   25461   25460   25463   25461   25460   25462   25462   25460   25463
   25463   25466   25469   25463   25466   25468   25463   25466   25467
   25464   25463   25466   25464   25463   25465   25465   25463   25466
   25466   25469   25472   25466   25469   25471   25466   25469   25470
   25467   25466   25469   25467   25466   25468   25468   25466   25469
   25469   25472   25475   25469   25472   25474   25469   25472   25473
   25470   25469   25472   25470   25469   25471   25471   25469   25472
   25472   25475   25478   25472   25475   25477   25472   25475   25476
   25473   25472   25475   25473   25472   25474   25474   25472   25475
   25475   25478   25481   25475   25478   25480   25475   25478   25479
   25476   25475   25478   25476   25475   25477   25477   25475   25478
   25478   25481   25484   25478   25481   25483   25478   25481   25482
   25479   25478   25481   25479   25478   25480   25480   25478   25481
   25482   25481   25484   25482   25481   25483   25483   25481   25484
   25485   25488   25491   25485   25488   25490   25485   25488   25489
   25486   25485   25488   25486   25485   25487   25487   25485   25488
   25488   25491   25494   25488   25491   25493   25488   25491   25492
   25489   25488   25491   25489   25488   25490   25490   25488   25491
   25491   25494   25497   25491   25494   25496   25491   25494   25495
   25492   25491   25494   25492   25491   25493   25493   25491   25494
   25494   25497   25500   25494   25497   25499   25494   25497   25498
   25495   25494   25497   25495   25494   25496   25496   25494   25497
   25497   25500   25503   25497   25500   25502   25497   25500   25501
   25498   25497   25500   25498   25497   25499   25499   25497   25500
   25500   25503   25506   25500   25503   25505   25500   25503   25504
   25501   25500   25503   25501   25500   25502   25502   25500   25503
   25503   25506   25509   25503   25506   25508   25503   25506   25507
   25504   25503   25506   25504   25503   25505   25505   25503   25506
   25506   25509   25512   25506   25509   25511   25506   25509   25510
   25507   25506   25509   25507   25506   25508   25508   25506   25509
   25509   25512   25515   25509   25512   25514   25509   25512   25513
   25510   25509   25512   25510   25509   25511   25511   25509   25512
   25512   25515   25518   25512   25515   25517   25512   25515   25516
   25513   25512   25515   25513   25512   25514   25514   25512   25515
   25515   25518   25521   25515   25518   25520   25515   25518   25519
   25516   25515   25518   25516   25515   25517   25517   25515   25518
   25519   25518   25521   25519   25518   25520   25520   25518   25521
   25522   25535   25538   25522   25535   25537   25522   25535   25536
   25522   25531   25534   25522   25531   25533   25522   25531   25532
   25522   25527   25530   25522   25527   25529   25522   25527   25528
   25522   25523   25526   25522   25523   25525   25522   25523   25524
   25523   25522   25535   25523   25522   25531   25523   25522   25527
   25524   25523   25526   25524   25523   25525   25525   25523   25526
   25527   25522   25535   25527   25522   25531   25528   25527   25530
   25528   25527   25529   25529   25527   25530   25531   25522   25535
   25532   25531   25534   25532   25531   25533   25533   25531   25534
   25535   25538   25545   25535   25538   25540   25535   25538   25539
   25536   25535   25538   25536   25535   25537   25537   25535   25538
   25538   25545   25541   25539   25538   25545   25539   25538   25540
   25540   25538   25545   25541   25544   25546   25542   25541   25543
   25542   25541   25544   25542   25541   25545   25543   25541   25544
   25543   25541   25545   25544   25541   25545   25544   25546   25547
   25544   25546   25548   25544   25546   25549   25546   25549   25551
   25546   25549   25557   25546   25549   25550   25547   25546   25549
   25547   25546   25548   25548   25546   25549   25549   25557   25560
   25549   25557   25559   25549   25557   25558   25549   25551   25552
   25550   25549   25551   25550   25549   25557   25551   25552   25553
   25551   25552   25554   25551   25549   25557   25552   25554   25566
   25552   25554   25556   25552   25554   25555   25553   25552   25554
   25554   25566   25569   25554   25566   25568   25554   25566   25567
   25555   25554   25566   25555   25554   25556   25556   25554   25566
   25557   25560   25561   25558   25557   25560   25558   25557   25559
   25559   25557   25560   25560   25561   25562   25560   25561   25563
   25561   25563   25603   25561   25563   25565   25561   25563   25564
   25562   25561   25563   25563   25603   25606   25563   25603   25605
   25563   25603   25604   25564   25563   25603   25564   25563   25565
   25565   25563   25603   25566   25569   25572   25566   25569   25571
   25566   25569   25570   25567   25566   25569   25567   25566   25568
   25568   25566   25569   25569   25572   25575   25569   25572   25574
   25569   25572   25573   25570   25569   25572   25570   25569   25571
   25571   25569   25572   25572   25575   25578   25572   25575   25577
   25572   25575   25576   25573   25572   25575   25573   25572   25574
   25574   25572   25575   25575   25578   25581   25575   25578   25580
   25575   25578   25579   25576   25575   25578   25576   25575   25577
   25577   25575   25578   25578   25581   25584   25578   25581   25583
   25578   25581   25582   25579   25578   25581   25579   25578   25580
   25580   25578   25581   25581   25584   25587   25581   25584   25586
   25581   25584   25585   25582   25581   25584   25582   25581   25583
   25583   25581   25584   25584   25587   25590   25584   25587   25589
   25584   25587   25588   25585   25584   25587   25585   25584   25586
   25586   25584   25587   25587   25590   25593   25587   25590   25592
   25587   25590   25591   25588   25587   25590   25588   25587   25589
   25589   25587   25590   25590   25593   25596   25590   25593   25595
   25590   25593   25594   25591   25590   25593   25591   25590   25592
   25592   25590   25593   25593   25596   25599   25593   25596   25598
   25593   25596   25597   25594   25593   25596   25594   25593   25595
   25595   25593   25596   25596   25599   25602   25596   25599   25601
   25596   25599   25600   25597   25596   25599   25597   25596   25598
   25598   25596   25599   25600   25599   25602   25600   25599   25601
   25601   25599   25602   25603   25606   25609   25603   25606   25608
   25603   25606   25607   25604   25603   25606   25604   25603   25605
   25605   25603   25606   25606   25609   25612   25606   25609   25611
   25606   25609   25610   25607   25606   25609   25607   25606   25608
   25608   25606   25609   25609   25612   25615   25609   25612   25614
   25609   25612   25613   25610   25609   25612   25610   25609   25611
   25611   25609   25612   25612   25615   25618   25612   25615   25617
   25612   25615   25616   25613   25612   25615   25613   25612   25614
   25614   25612   25615   25615   25618   25621   25615   25618   25620
   25615   25618   25619   25616   25615   25618   25616   25615   25617
   25617   25615   25618   25618   25621   25624   25618   25621   25623
   25618   25621   25622   25619   25618   25621   25619   25618   25620
   25620   25618   25621   25621   25624   25627   25621   25624   25626
   25621   25624   25625   25622   25621   25624   25622   25621   25623
   25623   25621   25624   25624   25627   25630   25624   25627   25629
   25624   25627   25628   25625   25624   25627   25625   25624   25626
   25626   25624   25627   25627   25630   25633   25627   25630   25632
   25627   25630   25631   25628   25627   25630   25628   25627   25629
   25629   25627   25630   25630   25633   25636   25630   25633   25635
   25630   25633   25634   25631   25630   25633   25631   25630   25632
   25632   25630   25633   25633   25636   25639   25633   25636   25638
   25633   25636   25637   25634   25633   25636   25634   25633   25635
   25635   25633   25636   25637   25636   25639   25637   25636   25638
   25638   25636   25639   25640   25653   25656   25640   25653   25655
   25640   25653   25654   25640   25649   25652   25640   25649   25651
   25640   25649   25650   25640   25645   25648   25640   25645   25647
   25640   25645   25646   25640   25641   25644   25640   25641   25643
   25640   25641   25642   25641   25640   25653   25641   25640   25649
   25641   25640   25645   25642   25641   25644   25642   25641   25643
   25643   25641   25644   25645   25640   25653   25645   25640   25649
   25646   25645   25648   25646   25645   25647   25647   25645   25648
   25649   25640   25653   25650   25649   25652   25650   25649   25651
   25651   25649   25652   25653   25656   25663   25653   25656   25658
   25653   25656   25657   25654   25653   25656   25654   25653   25655
   25655   25653   25656   25656   25663   25659   25657   25656   25663
   25657   25656   25658   25658   25656   25663   25659   25662   25664
   25660   25659   25661   25660   25659   25662   25660   25659   25663
   25661   25659   25662   25661   25659   25663   25662   25659   25663
   25662   25664   25665   25662   25664   25666   25662   25664   25667
   25664   25667   25669   25664   25667   25675   25664   25667   25668
   25665   25664   25667   25665   25664   25666   25666   25664   25667
   25667   25675   25678   25667   25675   25677   25667   25675   25676
   25667   25669   25670   25668   25667   25669   25668   25667   25675
   25669   25670   25671   25669   25670   25672   25669   25667   25675
   25670   25672   25684   25670   25672   25674   25670   25672   25673
   25671   25670   25672   25672   25684   25687   25672   25684   25686
   25672   25684   25685   25673   25672   25684   25673   25672   25674
   25674   25672   25684   25675   25678   25679   25676   25675   25678
   25676   25675   25677   25677   25675   25678   25678   25679   25680
   25678   25679   25681   25679   25681   25721   25679   25681   25683
   25679   25681   25682   25680   25679   25681   25681   25721   25724
   25681   25721   25723   25681   25721   25722   25682   25681   25721
   25682   25681   25683   25683   25681   25721   25684   25687   25690
   25684   25687   25689   25684   25687   25688   25685   25684   25687
   25685   25684   25686   25686   25684   25687   25687   25690   25693
   25687   25690   25692   25687   25690   25691   25688   25687   25690
   25688   25687   25689   25689   25687   25690   25690   25693   25696
   25690   25693   25695   25690   25693   25694   25691   25690   25693
   25691   25690   25692   25692   25690   25693   25693   25696   25699
   25693   25696   25698   25693   25696   25697   25694   25693   25696
   25694   25693   25695   25695   25693   25696   25696   25699   25702
   25696   25699   25701   25696   25699   25700   25697   25696   25699
   25697   25696   25698   25698   25696   25699   25699   25702   25705
   25699   25702   25704   25699   25702   25703   25700   25699   25702
   25700   25699   25701   25701   25699   25702   25702   25705   25708
   25702   25705   25707   25702   25705   25706   25703   25702   25705
   25703   25702   25704   25704   25702   25705   25705   25708   25711
   25705   25708   25710   25705   25708   25709   25706   25705   25708
   25706   25705   25707   25707   25705   25708   25708   25711   25714
   25708   25711   25713   25708   25711   25712   25709   25708   25711
   25709   25708   25710   25710   25708   25711   25711   25714   25717
   25711   25714   25716   25711   25714   25715   25712   25711   25714
   25712   25711   25713   25713   25711   25714   25714   25717   25720
   25714   25717   25719   25714   25717   25718   25715   25714   25717
   25715   25714   25716   25716   25714   25717   25718   25717   25720
   25718   25717   25719   25719   25717   25720   25721   25724   25727
   25721   25724   25726   25721   25724   25725   25722   25721   25724
   25722   25721   25723   25723   25721   25724   25724   25727   25730
   25724   25727   25729   25724   25727   25728   25725   25724   25727
   25725   25724   25726   25726   25724   25727   25727   25730   25733
   25727   25730   25732   25727   25730   25731   25728   25727   25730
   25728   25727   25729   25729   25727   25730   25730   25733   25736
   25730   25733   25735   25730   25733   25734   25731   25730   25733
   25731   25730   25732   25732   25730   25733   25733   25736   25739
   25733   25736   25738   25733   25736   25737   25734   25733   25736
   25734   25733   25735   25735   25733   25736   25736   25739   25742
   25736   25739   25741   25736   25739   25740   25737   25736   25739
   25737   25736   25738   25738   25736   25739   25739   25742   25745
   25739   25742   25744   25739   25742   25743   25740   25739   25742
   25740   25739   25741   25741   25739   25742   25742   25745   25748
   25742   25745   25747   25742   25745   25746   25743   25742   25745
   25743   25742   25744   25744   25742   25745   25745   25748   25751
   25745   25748   25750   25745   25748   25749   25746   25745   25748
   25746   25745   25747   25747   25745   25748   25748   25751   25754
   25748   25751   25753   25748   25751   25752   25749   25748   25751
   25749   25748   25750   25750   25748   25751   25751   25754   25757
   25751   25754   25756   25751   25754   25755   25752   25751   25754
   25752   25751   25753   25753   25751   25754   25755   25754   25757
   25755   25754   25756   25756   25754   25757   25758   25771   25774
   25758   25771   25773   25758   25771   25772   25758   25767   25770
   25758   25767   25769   25758   25767   25768   25758   25763   25766
   25758   25763   25765   25758   25763   25764   25758   25759   25762
   25758   25759   25761   25758   25759   25760   25759   25758   25771
   25759   25758   25767   25759   25758   25763   25760   25759   25762
   25760   25759   25761   25761   25759   25762   25763   25758   25771
   25763   25758   25767   25764   25763   25766   25764   25763   25765
   25765   25763   25766   25767   25758   25771   25768   25767   25770
   25768   25767   25769   25769   25767   25770   25771   25774   25781
   25771   25774   25776   25771   25774   25775   25772   25771   25774
   25772   25771   25773   25773   25771   25774   25774   25781   25777
   25775   25774   25781   25775   25774   25776   25776   25774   25781
   25777   25780   25782   25778   25777   25779   25778   25777   25780
   25778   25777   25781   25779   25777   25780   25779   25777   25781
   25780   25777   25781   25780   25782   25783   25780   25782   25784
   25780   25782   25785   25782   25785   25787   25782   25785   25793
   25782   25785   25786   25783   25782   25785   25783   25782   25784
   25784   25782   25785   25785   25793   25796   25785   25793   25795
   25785   25793   25794   25785   25787   25788   25786   25785   25787
   25786   25785   25793   25787   25788   25789   25787   25788   25790
   25787   25785   25793   25788   25790   25802   25788   25790   25792
   25788   25790   25791   25789   25788   25790   25790   25802   25805
   25790   25802   25804   25790   25802   25803   25791   25790   25802
   25791   25790   25792   25792   25790   25802   25793   25796   25797
   25794   25793   25796   25794   25793   25795   25795   25793   25796
   25796   25797   25798   25796   25797   25799   25797   25799   25839
   25797   25799   25801   25797   25799   25800   25798   25797   25799
   25799   25839   25842   25799   25839   25841   25799   25839   25840
   25800   25799   25839   25800   25799   25801   25801   25799   25839
   25802   25805   25808   25802   25805   25807   25802   25805   25806
   25803   25802   25805   25803   25802   25804   25804   25802   25805
   25805   25808   25811   25805   25808   25810   25805   25808   25809
   25806   25805   25808   25806   25805   25807   25807   25805   25808
   25808   25811   25814   25808   25811   25813   25808   25811   25812
   25809   25808   25811   25809   25808   25810   25810   25808   25811
   25811   25814   25817   25811   25814   25816   25811   25814   25815
   25812   25811   25814   25812   25811   25813   25813   25811   25814
   25814   25817   25820   25814   25817   25819   25814   25817   25818
   25815   25814   25817   25815   25814   25816   25816   25814   25817
   25817   25820   25823   25817   25820   25822   25817   25820   25821
   25818   25817   25820   25818   25817   25819   25819   25817   25820
   25820   25823   25826   25820   25823   25825   25820   25823   25824
   25821   25820   25823   25821   25820   25822   25822   25820   25823
   25823   25826   25829   25823   25826   25828   25823   25826   25827
   25824   25823   25826   25824   25823   25825   25825   25823   25826
   25826   25829   25832   25826   25829   25831   25826   25829   25830
   25827   25826   25829   25827   25826   25828   25828   25826   25829
   25829   25832   25835   25829   25832   25834   25829   25832   25833
   25830   25829   25832   25830   25829   25831   25831   25829   25832
   25832   25835   25838   25832   25835   25837   25832   25835   25836
   25833   25832   25835   25833   25832   25834   25834   25832   25835
   25836   25835   25838   25836   25835   25837   25837   25835   25838
   25839   25842   25845   25839   25842   25844   25839   25842   25843
   25840   25839   25842   25840   25839   25841   25841   25839   25842
   25842   25845   25848   25842   25845   25847   25842   25845   25846
   25843   25842   25845   25843   25842   25844   25844   25842   25845
   25845   25848   25851   25845   25848   25850   25845   25848   25849
   25846   25845   25848   25846   25845   25847   25847   25845   25848
   25848   25851   25854   25848   25851   25853   25848   25851   25852
   25849   25848   25851   25849   25848   25850   25850   25848   25851
   25851   25854   25857   25851   25854   25856   25851   25854   25855
   25852   25851   25854   25852   25851   25853   25853   25851   25854
   25854   25857   25860   25854   25857   25859   25854   25857   25858
   25855   25854   25857   25855   25854   25856   25856   25854   25857
   25857   25860   25863   25857   25860   25862   25857   25860   25861
   25858   25857   25860   25858   25857   25859   25859   25857   25860
   25860   25863   25866   25860   25863   25865   25860   25863   25864
   25861   25860   25863   25861   25860   25862   25862   25860   25863
   25863   25866   25869   25863   25866   25868   25863   25866   25867
   25864   25863   25866   25864   25863   25865   25865   25863   25866
   25866   25869   25872   25866   25869   25871   25866   25869   25870
   25867   25866   25869   25867   25866   25868   25868   25866   25869
   25869   25872   25875   25869   25872   25874   25869   25872   25873
   25870   25869   25872   25870   25869   25871   25871   25869   25872
   25873   25872   25875   25873   25872   25874   25874   25872   25875
   25876   25889   25892   25876   25889   25891   25876   25889   25890
   25876   25885   25888   25876   25885   25887   25876   25885   25886
   25876   25881   25884   25876   25881   25883   25876   25881   25882
   25876   25877   25880   25876   25877   25879   25876   25877   25878
   25877   25876   25889   25877   25876   25885   25877   25876   25881
   25878   25877   25880   25878   25877   25879   25879   25877   25880
   25881   25876   25889   25881   25876   25885   25882   25881   25884
   25882   25881   25883   25883   25881   25884   25885   25876   25889
   25886   25885   25888   25886   25885   25887   25887   25885   25888
   25889   25892   25899   25889   25892   25894   25889   25892   25893
   25890   25889   25892   25890   25889   25891   25891   25889   25892
   25892   25899   25895   25893   25892   25899   25893   25892   25894
   25894   25892   25899   25895   25898   25900   25896   25895   25897
   25896   25895   25898   25896   25895   25899   25897   25895   25898
   25897   25895   25899   25898   25895   25899   25898   25900   25901
   25898   25900   25902   25898   25900   25903   25900   25903   25905
   25900   25903   25911   25900   25903   25904   25901   25900   25903
   25901   25900   25902   25902   25900   25903   25903   25911   25914
   25903   25911   25913   25903   25911   25912   25903   25905   25906
   25904   25903   25905   25904   25903   25911   25905   25906   25907
   25905   25906   25908   25905   25903   25911   25906   25908   25920
   25906   25908   25910   25906   25908   25909   25907   25906   25908
   25908   25920   25923   25908   25920   25922   25908   25920   25921
   25909   25908   25920   25909   25908   25910   25910   25908   25920
   25911   25914   25915   25912   25911   25914   25912   25911   25913
   25913   25911   25914   25914   25915   25916   25914   25915   25917
   25915   25917   25957   25915   25917   25919   25915   25917   25918
   25916   25915   25917   25917   25957   25960   25917   25957   25959
   25917   25957   25958   25918   25917   25957   25918   25917   25919
   25919   25917   25957   25920   25923   25926   25920   25923   25925
   25920   25923   25924   25921   25920   25923   25921   25920   25922
   25922   25920   25923   25923   25926   25929   25923   25926   25928
   25923   25926   25927   25924   25923   25926   25924   25923   25925
   25925   25923   25926   25926   25929   25932   25926   25929   25931
   25926   25929   25930   25927   25926   25929   25927   25926   25928
   25928   25926   25929   25929   25932   25935   25929   25932   25934
   25929   25932   25933   25930   25929   25932   25930   25929   25931
   25931   25929   25932   25932   25935   25938   25932   25935   25937
   25932   25935   25936   25933   25932   25935   25933   25932   25934
   25934   25932   25935   25935   25938   25941   25935   25938   25940
   25935   25938   25939   25936   25935   25938   25936   25935   25937
   25937   25935   25938   25938   25941   25944   25938   25941   25943
   25938   25941   25942   25939   25938   25941   25939   25938   25940
   25940   25938   25941   25941   25944   25947   25941   25944   25946
   25941   25944   25945   25942   25941   25944   25942   25941   25943
   25943   25941   25944   25944   25947   25950   25944   25947   25949
   25944   25947   25948   25945   25944   25947   25945   25944   25946
   25946   25944   25947   25947   25950   25953   25947   25950   25952
   25947   25950   25951   25948   25947   25950   25948   25947   25949
   25949   25947   25950   25950   25953   25956   25950   25953   25955
   25950   25953   25954   25951   25950   25953   25951   25950   25952
   25952   25950   25953   25954   25953   25956   25954   25953   25955
   25955   25953   25956   25957   25960   25963   25957   25960   25962
   25957   25960   25961   25958   25957   25960   25958   25957   25959
   25959   25957   25960   25960   25963   25966   25960   25963   25965
   25960   25963   25964   25961   25960   25963   25961   25960   25962
   25962   25960   25963   25963   25966   25969   25963   25966   25968
   25963   25966   25967   25964   25963   25966   25964   25963   25965
   25965   25963   25966   25966   25969   25972   25966   25969   25971
   25966   25969   25970   25967   25966   25969   25967   25966   25968
   25968   25966   25969   25969   25972   25975   25969   25972   25974
   25969   25972   25973   25970   25969   25972   25970   25969   25971
   25971   25969   25972   25972   25975   25978   25972   25975   25977
   25972   25975   25976   25973   25972   25975   25973   25972   25974
   25974   25972   25975   25975   25978   25981   25975   25978   25980
   25975   25978   25979   25976   25975   25978   25976   25975   25977
   25977   25975   25978   25978   25981   25984   25978   25981   25983
   25978   25981   25982   25979   25978   25981   25979   25978   25980
   25980   25978   25981   25981   25984   25987   25981   25984   25986
   25981   25984   25985   25982   25981   25984   25982   25981   25983
   25983   25981   25984   25984   25987   25990   25984   25987   25989
   25984   25987   25988   25985   25984   25987   25985   25984   25986
   25986   25984   25987   25987   25990   25993   25987   25990   25992
   25987   25990   25991   25988   25987   25990   25988   25987   25989
   25989   25987   25990   25991   25990   25993   25991   25990   25992
   25992   25990   25993   25994   26007   26010   25994   26007   26009
   25994   26007   26008   25994   26003   26006   25994   26003   26005
   25994   26003   26004   25994   25999   26002   25994   25999   26001
   25994   25999   26000   25994   25995   25998   25994   25995   25997
   25994   25995   25996   25995   25994   26007   25995   25994   26003
   25995   25994   25999   25996   25995   25998   25996   25995   25997
   25997   25995   25998   25999   25994   26007   25999   25994   26003
   26000   25999   26002   26000   25999   26001   26001   25999   26002
   26003   25994   26007   26004   26003   26006   26004   26003   26005
   26005   26003   26006   26007   26010   26017   26007   26010   26012
   26007   26010   26011   26008   26007   26010   26008   26007   26009
   26009   26007   26010   26010   26017   26013   26011   26010   26017
   26011   26010   26012   26012   26010   26017   26013   26016   26018
   26014   26013   26015   26014   26013   26016   26014   26013   26017
   26015   26013   26016   26015   26013   26017   26016   26013   26017
   26016   26018   26019   26016   26018   26020   26016   26018   26021
   26018   26021   26023   26018   26021   26029   26018   26021   26022
   26019   26018   26021   26019   26018   26020   26020   26018   26021
   26021   26029   26032   26021   26029   26031   26021   26029   26030
   26021   26023   26024   26022   26021   26023   26022   26021   26029
   26023   26024   26025   26023   26024   26026   26023   26021   26029
   26024   26026   26038   26024   26026   26028   26024   26026   26027
   26025   26024   26026   26026   26038   26041   26026   26038   26040
   26026   26038   26039   26027   26026   26038   26027   26026   26028
   26028   26026   26038   26029   26032   26033   26030   26029   26032
   26030   26029   26031   26031   26029   26032   26032   26033   26034
   26032   26033   26035   26033   26035   26075   26033   26035   26037
   26033   26035   26036   26034   26033   26035   26035   26075   26078
   26035   26075   26077   26035   26075   26076   26036   26035   26075
   26036   26035   26037   26037   26035   26075   26038   26041   26044
   26038   26041   26043   26038   26041   26042   26039   26038   26041
   26039   26038   26040   26040   26038   26041   26041   26044   26047
   26041   26044   26046   26041   26044   26045   26042   26041   26044
   26042   26041   26043   26043   26041   26044   26044   26047   26050
   26044   26047   26049   26044   26047   26048   26045   26044   26047
   26045   26044   26046   26046   26044   26047   26047   26050   26053
   26047   26050   26052   26047   26050   26051   26048   26047   26050
   26048   26047   26049   26049   26047   26050   26050   26053   26056
   26050   26053   26055   26050   26053   26054   26051   26050   26053
   26051   26050   26052   26052   26050   26053   26053   26056   26059
   26053   26056   26058   26053   26056   26057   26054   26053   26056
   26054   26053   26055   26055   26053   26056   26056   26059   26062
   26056   26059   26061   26056   26059   26060   26057   26056   26059
   26057   26056   26058   26058   26056   26059   26059   26062   26065
   26059   26062   26064   26059   26062   26063   26060   26059   26062
   26060   26059   26061   26061   26059   26062   26062   26065   26068
   26062   26065   26067   26062   26065   26066   26063   26062   26065
   26063   26062   26064   26064   26062   26065   26065   26068   26071
   26065   26068   26070   26065   26068   26069   26066   26065   26068
   26066   26065   26067   26067   26065   26068   26068   26071   26074
   26068   26071   26073   26068   26071   26072   26069   26068   26071
   26069   26068   26070   26070   26068   26071   26072   26071   26074
   26072   26071   26073   26073   26071   26074   26075   26078   26081
   26075   26078   26080   26075   26078   26079   26076   26075   26078
   26076   26075   26077   26077   26075   26078   26078   26081   26084
   26078   26081   26083   26078   26081   26082   26079   26078   26081
   26079   26078   26080   26080   26078   26081   26081   26084   26087
   26081   26084   26086   26081   26084   26085   26082   26081   26084
   26082   26081   26083   26083   26081   26084   26084   26087   26090
   26084   26087   26089   26084   26087   26088   26085   26084   26087
   26085   26084   26086   26086   26084   26087   26087   26090   26093
   26087   26090   26092   26087   26090   26091   26088   26087   26090
   26088   26087   26089   26089   26087   26090   26090   26093   26096
   26090   26093   26095   26090   26093   26094   26091   26090   26093
   26091   26090   26092   26092   26090   26093   26093   26096   26099
   26093   26096   26098   26093   26096   26097   26094   26093   26096
   26094   26093   26095   26095   26093   26096   26096   26099   26102
   26096   26099   26101   26096   26099   26100   26097   26096   26099
   26097   26096   26098   26098   26096   26099   26099   26102   26105
   26099   26102   26104   26099   26102   26103   26100   26099   26102
   26100   26099   26101   26101   26099   26102   26102   26105   26108
   26102   26105   26107   26102   26105   26106   26103   26102   26105
   26103   26102   26104   26104   26102   26105   26105   26108   26111
   26105   26108   26110   26105   26108   26109   26106   26105   26108
   26106   26105   26107   26107   26105   26108   26109   26108   26111
   26109   26108   26110   26110   26108   26111   26112   26125   26128
   26112   26125   26127   26112   26125   26126   26112   26121   26124
   26112   26121   26123   26112   26121   26122   26112   26117   26120
   26112   26117   26119   26112   26117   26118   26112   26113   26116
   26112   26113   26115   26112   26113   26114   26113   26112   26125
   26113   26112   26121   26113   26112   26117   26114   26113   26116
   26114   26113   26115   26115   26113   26116   26117   26112   26125
   26117   26112   26121   26118   26117   26120   26118   26117   26119
   26119   26117   26120   26121   26112   26125   26122   26121   26124
   26122   26121   26123   26123   26121   26124   26125   26128   26135
   26125   26128   26130   26125   26128   26129   26126   26125   26128
   26126   26125   26127   26127   26125   26128   26128   26135   26131
   26129   26128   26135   26129   26128   26130   26130   26128   26135
   26131   26134   26136   26132   26131   26133   26132   26131   26134
   26132   26131   26135   26133   26131   26134   26133   26131   26135
   26134   26131   26135   26134   26136   26137   26134   26136   26138
   26134   26136   26139   26136   26139   26141   26136   26139   26147
   26136   26139   26140   26137   26136   26139   26137   26136   26138
   26138   26136   26139   26139   26147   26150   26139   26147   26149
   26139   26147   26148   26139   26141   26142   26140   26139   26141
   26140   26139   26147   26141   26142   26143   26141   26142   26144
   26141   26139   26147   26142   26144   26156   26142   26144   26146
   26142   26144   26145   26143   26142   26144   26144   26156   26159
   26144   26156   26158   26144   26156   26157   26145   26144   26156
   26145   26144   26146   26146   26144   26156   26147   26150   26151
   26148   26147   26150   26148   26147   26149   26149   26147   26150
   26150   26151   26152   26150   26151   26153   26151   26153   26193
   26151   26153   26155   26151   26153   26154   26152   26151   26153
   26153   26193   26196   26153   26193   26195   26153   26193   26194
   26154   26153   26193   26154   26153   26155   26155   26153   26193
   26156   26159   26162   26156   26159   26161   26156   26159   26160
   26157   26156   26159   26157   26156   26158   26158   26156   26159
   26159   26162   26165   26159   26162   26164   26159   26162   26163
   26160   26159   26162   26160   26159   26161   26161   26159   26162
   26162   26165   26168   26162   26165   26167   26162   26165   26166
   26163   26162   26165   26163   26162   26164   26164   26162   26165
   26165   26168   26171   26165   26168   26170   26165   26168   26169
   26166   26165   26168   26166   26165   26167   26167   26165   26168
   26168   26171   26174   26168   26171   26173   26168   26171   26172
   26169   26168   26171   26169   26168   26170   26170   26168   26171
   26171   26174   26177   26171   26174   26176   26171   26174   26175
   26172   26171   26174   26172   26171   26173   26173   26171   26174
   26174   26177   26180   26174   26177   26179   26174   26177   26178
   26175   26174   26177   26175   26174   26176   26176   26174   26177
   26177   26180   26183   26177   26180   26182   26177   26180   26181
   26178   26177   26180   26178   26177   26179   26179   26177   26180
   26180   26183   26186   26180   26183   26185   26180   26183   26184
   26181   26180   26183   26181   26180   26182   26182   26180   26183
   26183   26186   26189   26183   26186   26188   26183   26186   26187
   26184   26183   26186   26184   26183   26185   26185   26183   26186
   26186   26189   26192   26186   26189   26191   26186   26189   26190
   26187   26186   26189   26187   26186   26188   26188   26186   26189
   26190   26189   26192   26190   26189   26191   26191   26189   26192
   26193   26196   26199   26193   26196   26198   26193   26196   26197
   26194   26193   26196   26194   26193   26195   26195   26193   26196
   26196   26199   26202   26196   26199   26201   26196   26199   26200
   26197   26196   26199   26197   26196   26198   26198   26196   26199
   26199   26202   26205   26199   26202   26204   26199   26202   26203
   26200   26199   26202   26200   26199   26201   26201   26199   26202
   26202   26205   26208   26202   26205   26207   26202   26205   26206
   26203   26202   26205   26203   26202   26204   26204   26202   26205
   26205   26208   26211   26205   26208   26210   26205   26208   26209
   26206   26205   26208   26206   26205   26207   26207   26205   26208
   26208   26211   26214   26208   26211   26213   26208   26211   26212
   26209   26208   26211   26209   26208   26210   26210   26208   26211
   26211   26214   26217   26211   26214   26216   26211   26214   26215
   26212   26211   26214   26212   26211   26213   26213   26211   26214
   26214   26217   26220   26214   26217   26219   26214   26217   26218
   26215   26214   26217   26215   26214   26216   26216   26214   26217
   26217   26220   26223   26217   26220   26222   26217   26220   26221
   26218   26217   26220   26218   26217   26219   26219   26217   26220
   26220   26223   26226   26220   26223   26225   26220   26223   26224
   26221   26220   26223   26221   26220   26222   26222   26220   26223
   26223   26226   26229   26223   26226   26228   26223   26226   26227
   26224   26223   26226   26224   26223   26225   26225   26223   26226
   26227   26226   26229   26227   26226   26228   26228   26226   26229
   26230   26243   26246   26230   26243   26245   26230   26243   26244
   26230   26239   26242   26230   26239   26241   26230   26239   26240
   26230   26235   26238   26230   26235   26237   26230   26235   26236
   26230   26231   26234   26230   26231   26233   26230   26231   26232
   26231   26230   26243   26231   26230   26239   26231   26230   26235
   26232   26231   26234   26232   26231   26233   26233   26231   26234
   26235   26230   26243   26235   26230   26239   26236   26235   26238
   26236   26235   26237   26237   26235   26238   26239   26230   26243
   26240   26239   26242   26240   26239   26241   26241   26239   26242
   26243   26246   26253   26243   26246   26248   26243   26246   26247
   26244   26243   26246   26244   26243   26245   26245   26243   26246
   26246   26253   26249   26247   26246   26253   26247   26246   26248
   26248   26246   26253   26249   26252   26254   26250   26249   26251
   26250   26249   26252   26250   26249   26253   26251   26249   26252
   26251   26249   26253   26252   26249   26253   26252   26254   26255
   26252   26254   26256   26252   26254   26257   26254   26257   26259
   26254   26257   26265   26254   26257   26258   26255   26254   26257
   26255   26254   26256   26256   26254   26257   26257   26265   26268
   26257   26265   26267   26257   26265   26266   26257   26259   26260
   26258   26257   26259   26258   26257   26265   26259   26260   26261
   26259   26260   26262   26259   26257   26265   26260   26262   26274
   26260   26262   26264   26260   26262   26263   26261   26260   26262
   26262   26274   26277   26262   26274   26276   26262   26274   26275
   26263   26262   26274   26263   26262   26264   26264   26262   26274
   26265   26268   26269   26266   26265   26268   26266   26265   26267
   26267   26265   26268   26268   26269   26270   26268   26269   26271
   26269   26271   26311   26269   26271   26273   26269   26271   26272
   26270   26269   26271   26271   26311   26314   26271   26311   26313
   26271   26311   26312   26272   26271   26311   26272   26271   26273
   26273   26271   26311   26274   26277   26280   26274   26277   26279
   26274   26277   26278   26275   26274   26277   26275   26274   26276
   26276   26274   26277   26277   26280   26283   26277   26280   26282
   26277   26280   26281   26278   26277   26280   26278   26277   26279
   26279   26277   26280   26280   26283   26286   26280   26283   26285
   26280   26283   26284   26281   26280   26283   26281   26280   26282
   26282   26280   26283   26283   26286   26289   26283   26286   26288
   26283   26286   26287   26284   26283   26286   26284   26283   26285
   26285   26283   26286   26286   26289   26292   26286   26289   26291
   26286   26289   26290   26287   26286   26289   26287   26286   26288
   26288   26286   26289   26289   26292   26295   26289   26292   26294
   26289   26292   26293   26290   26289   26292   26290   26289   26291
   26291   26289   26292   26292   26295   26298   26292   26295   26297
   26292   26295   26296   26293   26292   26295   26293   26292   26294
   26294   26292   26295   26295   26298   26301   26295   26298   26300
   26295   26298   26299   26296   26295   26298   26296   26295   26297
   26297   26295   26298   26298   26301   26304   26298   26301   26303
   26298   26301   26302   26299   26298   26301   26299   26298   26300
   26300   26298   26301   26301   26304   26307   26301   26304   26306
   26301   26304   26305   26302   26301   26304   26302   26301   26303
   26303   26301   26304   26304   26307   26310   26304   26307   26309
   26304   26307   26308   26305   26304   26307   26305   26304   26306
   26306   26304   26307   26308   26307   26310   26308   26307   26309
   26309   26307   26310   26311   26314   26317   26311   26314   26316
   26311   26314   26315   26312   26311   26314   26312   26311   26313
   26313   26311   26314   26314   26317   26320   26314   26317   26319
   26314   26317   26318   26315   26314   26317   26315   26314   26316
   26316   26314   26317   26317   26320   26323   26317   26320   26322
   26317   26320   26321   26318   26317   26320   26318   26317   26319
   26319   26317   26320   26320   26323   26326   26320   26323   26325
   26320   26323   26324   26321   26320   26323   26321   26320   26322
   26322   26320   26323   26323   26326   26329   26323   26326   26328
   26323   26326   26327   26324   26323   26326   26324   26323   26325
   26325   26323   26326   26326   26329   26332   26326   26329   26331
   26326   26329   26330   26327   26326   26329   26327   26326   26328
   26328   26326   26329   26329   26332   26335   26329   26332   26334
   26329   26332   26333   26330   26329   26332   26330   26329   26331
   26331   26329   26332   26332   26335   26338   26332   26335   26337
   26332   26335   26336   26333   26332   26335   26333   26332   26334
   26334   26332   26335   26335   26338   26341   26335   26338   26340
   26335   26338   26339   26336   26335   26338   26336   26335   26337
   26337   26335   26338   26338   26341   26344   26338   26341   26343
   26338   26341   26342   26339   26338   26341   26339   26338   26340
   26340   26338   26341   26341   26344   26347   26341   26344   26346
   26341   26344   26345   26342   26341   26344   26342   26341   26343
   26343   26341   26344   26345   26344   26347   26345   26344   26346
   26346   26344   26347   26348   26361   26364   26348   26361   26363
   26348   26361   26362   26348   26357   26360   26348   26357   26359
   26348   26357   26358   26348   26353   26356   26348   26353   26355
   26348   26353   26354   26348   26349   26352   26348   26349   26351
   26348   26349   26350   26349   26348   26361   26349   26348   26357
   26349   26348   26353   26350   26349   26352   26350   26349   26351
   26351   26349   26352   26353   26348   26361   26353   26348   26357
   26354   26353   26356   26354   26353   26355   26355   26353   26356
   26357   26348   26361   26358   26357   26360   26358   26357   26359
   26359   26357   26360   26361   26364   26371   26361   26364   26366
   26361   26364   26365   26362   26361   26364   26362   26361   26363
   26363   26361   26364   26364   26371   26367   26365   26364   26371
   26365   26364   26366   26366   26364   26371   26367   26370   26372
   26368   26367   26369   26368   26367   26370   26368   26367   26371
   26369   26367   26370   26369   26367   26371   26370   26367   26371
   26370   26372   26373   26370   26372   26374   26370   26372   26375
   26372   26375   26377   26372   26375   26383   26372   26375   26376
   26373   26372   26375   26373   26372   26374   26374   26372   26375
   26375   26383   26386   26375   26383   26385   26375   26383   26384
   26375   26377   26378   26376   26375   26377   26376   26375   26383
   26377   26378   26379   26377   26378   26380   26377   26375   26383
   26378   26380   26392   26378   26380   26382   26378   26380   26381
   26379   26378   26380   26380   26392   26395   26380   26392   26394
   26380   26392   26393   26381   26380   26392   26381   26380   26382
   26382   26380   26392   26383   26386   26387   26384   26383   26386
   26384   26383   26385   26385   26383   26386   26386   26387   26388
   26386   26387   26389   26387   26389   26429   26387   26389   26391
   26387   26389   26390   26388   26387   26389   26389   26429   26432
   26389   26429   26431   26389   26429   26430   26390   26389   26429
   26390   26389   26391   26391   26389   26429   26392   26395   26398
   26392   26395   26397   26392   26395   26396   26393   26392   26395
   26393   26392   26394   26394   26392   26395   26395   26398   26401
   26395   26398   26400   26395   26398   26399   26396   26395   26398
   26396   26395   26397   26397   26395   26398   26398   26401   26404
   26398   26401   26403   26398   26401   26402   26399   26398   26401
   26399   26398   26400   26400   26398   26401   26401   26404   26407
   26401   26404   26406   26401   26404   26405   26402   26401   26404
   26402   26401   26403   26403   26401   26404   26404   26407   26410
   26404   26407   26409   26404   26407   26408   26405   26404   26407
   26405   26404   26406   26406   26404   26407   26407   26410   26413
   26407   26410   26412   26407   26410   26411   26408   26407   26410
   26408   26407   26409   26409   26407   26410   26410   26413   26416
   26410   26413   26415   26410   26413   26414   26411   26410   26413
   26411   26410   26412   26412   26410   26413   26413   26416   26419
   26413   26416   26418   26413   26416   26417   26414   26413   26416
   26414   26413   26415   26415   26413   26416   26416   26419   26422
   26416   26419   26421   26416   26419   26420   26417   26416   26419
   26417   26416   26418   26418   26416   26419   26419   26422   26425
   26419   26422   26424   26419   26422   26423   26420   26419   26422
   26420   26419   26421   26421   26419   26422   26422   26425   26428
   26422   26425   26427   26422   26425   26426   26423   26422   26425
   26423   26422   26424   26424   26422   26425   26426   26425   26428
   26426   26425   26427   26427   26425   26428   26429   26432   26435
   26429   26432   26434   26429   26432   26433   26430   26429   26432
   26430   26429   26431   26431   26429   26432   26432   26435   26438
   26432   26435   26437   26432   26435   26436   26433   26432   26435
   26433   26432   26434   26434   26432   26435   26435   26438   26441
   26435   26438   26440   26435   26438   26439   26436   26435   26438
   26436   26435   26437   26437   26435   26438   26438   26441   26444
   26438   26441   26443   26438   26441   26442   26439   26438   26441
   26439   26438   26440   26440   26438   26441   26441   26444   26447
   26441   26444   26446   26441   26444   26445   26442   26441   26444
   26442   26441   26443   26443   26441   26444   26444   26447   26450
   26444   26447   26449   26444   26447   26448   26445   26444   26447
   26445   26444   26446   26446   26444   26447   26447   26450   26453
   26447   26450   26452   26447   26450   26451   26448   26447   26450
   26448   26447   26449   26449   26447   26450   26450   26453   26456
   26450   26453   26455   26450   26453   26454   26451   26450   26453
   26451   26450   26452   26452   26450   26453   26453   26456   26459
   26453   26456   26458   26453   26456   26457   26454   26453   26456
   26454   26453   26455   26455   26453   26456   26456   26459   26462
   26456   26459   26461   26456   26459   26460   26457   26456   26459
   26457   26456   26458   26458   26456   26459   26459   26462   26465
   26459   26462   26464   26459   26462   26463   26460   26459   26462
   26460   26459   26461   26461   26459   26462   26463   26462   26465
   26463   26462   26464   26464   26462   26465   26466   26479   26482
   26466   26479   26481   26466   26479   26480   26466   26475   26478
   26466   26475   26477   26466   26475   26476   26466   26471   26474
   26466   26471   26473   26466   26471   26472   26466   26467   26470
   26466   26467   26469   26466   26467   26468   26467   26466   26479
   26467   26466   26475   26467   26466   26471   26468   26467   26470
   26468   26467   26469   26469   26467   26470   26471   26466   26479
   26471   26466   26475   26472   26471   26474   26472   26471   26473
   26473   26471   26474   26475   26466   26479   26476   26475   26478
   26476   26475   26477   26477   26475   26478   26479   26482   26489
   26479   26482   26484   26479   26482   26483   26480   26479   26482
   26480   26479   26481   26481   26479   26482   26482   26489   26485
   26483   26482   26489   26483   26482   26484   26484   26482   26489
   26485   26488   26490   26486   26485   26487   26486   26485   26488
   26486   26485   26489   26487   26485   26488   26487   26485   26489
   26488   26485   26489   26488   26490   26491   26488   26490   26492
   26488   26490   26493   26490   26493   26495   26490   26493   26501
   26490   26493   26494   26491   26490   26493   26491   26490   26492
   26492   26490   26493   26493   26501   26504   26493   26501   26503
   26493   26501   26502   26493   26495   26496   26494   26493   26495
   26494   26493   26501   26495   26496   26497   26495   26496   26498
   26495   26493   26501   26496   26498   26510   26496   26498   26500
   26496   26498   26499   26497   26496   26498   26498   26510   26513
   26498   26510   26512   26498   26510   26511   26499   26498   26510
   26499   26498   26500   26500   26498   26510   26501   26504   26505
   26502   26501   26504   26502   26501   26503   26503   26501   26504
   26504   26505   26506   26504   26505   26507   26505   26507   26547
   26505   26507   26509   26505   26507   26508   26506   26505   26507
   26507   26547   26550   26507   26547   26549   26507   26547   26548
   26508   26507   26547   26508   26507   26509   26509   26507   26547
   26510   26513   26516   26510   26513   26515   26510   26513   26514
   26511   26510   26513   26511   26510   26512   26512   26510   26513
   26513   26516   26519   26513   26516   26518   26513   26516   26517
   26514   26513   26516   26514   26513   26515   26515   26513   26516
   26516   26519   26522   26516   26519   26521   26516   26519   26520
   26517   26516   26519   26517   26516   26518   26518   26516   26519
   26519   26522   26525   26519   26522   26524   26519   26522   26523
   26520   26519   26522   26520   26519   26521   26521   26519   26522
   26522   26525   26528   26522   26525   26527   26522   26525   26526
   26523   26522   26525   26523   26522   26524   26524   26522   26525
   26525   26528   26531   26525   26528   26530   26525   26528   26529
   26526   26525   26528   26526   26525   26527   26527   26525   26528
   26528   26531   26534   26528   26531   26533   26528   26531   26532
   26529   26528   26531   26529   26528   26530   26530   26528   26531
   26531   26534   26537   26531   26534   26536   26531   26534   26535
   26532   26531   26534   26532   26531   26533   26533   26531   26534
   26534   26537   26540   26534   26537   26539   26534   26537   26538
   26535   26534   26537   26535   26534   26536   26536   26534   26537
   26537   26540   26543   26537   26540   26542   26537   26540   26541
   26538   26537   26540   26538   26537   26539   26539   26537   26540
   26540   26543   26546   26540   26543   26545   26540   26543   26544
   26541   26540   26543   26541   26540   26542   26542   26540   26543
   26544   26543   26546   26544   26543   26545   26545   26543   26546
   26547   26550   26553   26547   26550   26552   26547   26550   26551
   26548   26547   26550   26548   26547   26549   26549   26547   26550
   26550   26553   26556   26550   26553   26555   26550   26553   26554
   26551   26550   26553   26551   26550   26552   26552   26550   26553
   26553   26556   26559   26553   26556   26558   26553   26556   26557
   26554   26553   26556   26554   26553   26555   26555   26553   26556
   26556   26559   26562   26556   26559   26561   26556   26559   26560
   26557   26556   26559   26557   26556   26558   26558   26556   26559
   26559   26562   26565   26559   26562   26564   26559   26562   26563
   26560   26559   26562   26560   26559   26561   26561   26559   26562
   26562   26565   26568   26562   26565   26567   26562   26565   26566
   26563   26562   26565   26563   26562   26564   26564   26562   26565
   26565   26568   26571   26565   26568   26570   26565   26568   26569
   26566   26565   26568   26566   26565   26567   26567   26565   26568
   26568   26571   26574   26568   26571   26573   26568   26571   26572
   26569   26568   26571   26569   26568   26570   26570   26568   26571
   26571   26574   26577   26571   26574   26576   26571   26574   26575
   26572   26571   26574   26572   26571   26573   26573   26571   26574
   26574   26577   26580   26574   26577   26579   26574   26577   26578
   26575   26574   26577   26575   26574   26576   26576   26574   26577
   26577   26580   26583   26577   26580   26582   26577   26580   26581
   26578   26577   26580   26578   26577   26579   26579   26577   26580
   26581   26580   26583   26581   26580   26582   26582   26580   26583
   26584   26597   26600   26584   26597   26599   26584   26597   26598
   26584   26593   26596   26584   26593   26595   26584   26593   26594
   26584   26589   26592   26584   26589   26591   26584   26589   26590
   26584   26585   26588   26584   26585   26587   26584   26585   26586
   26585   26584   26597   26585   26584   26593   26585   26584   26589
   26586   26585   26588   26586   26585   26587   26587   26585   26588
   26589   26584   26597   26589   26584   26593   26590   26589   26592
   26590   26589   26591   26591   26589   26592   26593   26584   26597
   26594   26593   26596   26594   26593   26595   26595   26593   26596
   26597   26600   26607   26597   26600   26602   26597   26600   26601
   26598   26597   26600   26598   26597   26599   26599   26597   26600
   26600   26607   26603   26601   26600   26607   26601   26600   26602
   26602   26600   26607   26603   26606   26608   26604   26603   26605
   26604   26603   26606   26604   26603   26607   26605   26603   26606
   26605   26603   26607   26606   26603   26607   26606   26608   26609
   26606   26608   26610   26606   26608   26611   26608   26611   26613
   26608   26611   26619   26608   26611   26612   26609   26608   26611
   26609   26608   26610   26610   26608   26611   26611   26619   26622
   26611   26619   26621   26611   26619   26620   26611   26613   26614
   26612   26611   26613   26612   26611   26619   26613   26614   26615
   26613   26614   26616   26613   26611   26619   26614   26616   26628
   26614   26616   26618   26614   26616   26617   26615   26614   26616
   26616   26628   26631   26616   26628   26630   26616   26628   26629
   26617   26616   26628   26617   26616   26618   26618   26616   26628
   26619   26622   26623   26620   26619   26622   26620   26619   26621
   26621   26619   26622   26622   26623   26624   26622   26623   26625
   26623   26625   26665   26623   26625   26627   26623   26625   26626
   26624   26623   26625   26625   26665   26668   26625   26665   26667
   26625   26665   26666   26626   26625   26665   26626   26625   26627
   26627   26625   26665   26628   26631   26634   26628   26631   26633
   26628   26631   26632   26629   26628   26631   26629   26628   26630
   26630   26628   26631   26631   26634   26637   26631   26634   26636
   26631   26634   26635   26632   26631   26634   26632   26631   26633
   26633   26631   26634   26634   26637   26640   26634   26637   26639
   26634   26637   26638   26635   26634   26637   26635   26634   26636
   26636   26634   26637   26637   26640   26643   26637   26640   26642
   26637   26640   26641   26638   26637   26640   26638   26637   26639
   26639   26637   26640   26640   26643   26646   26640   26643   26645
   26640   26643   26644   26641   26640   26643   26641   26640   26642
   26642   26640   26643   26643   26646   26649   26643   26646   26648
   26643   26646   26647   26644   26643   26646   26644   26643   26645
   26645   26643   26646   26646   26649   26652   26646   26649   26651
   26646   26649   26650   26647   26646   26649   26647   26646   26648
   26648   26646   26649   26649   26652   26655   26649   26652   26654
   26649   26652   26653   26650   26649   26652   26650   26649   26651
   26651   26649   26652   26652   26655   26658   26652   26655   26657
   26652   26655   26656   26653   26652   26655   26653   26652   26654
   26654   26652   26655   26655   26658   26661   26655   26658   26660
   26655   26658   26659   26656   26655   26658   26656   26655   26657
   26657   26655   26658   26658   26661   26664   26658   26661   26663
   26658   26661   26662   26659   26658   26661   26659   26658   26660
   26660   26658   26661   26662   26661   26664   26662   26661   26663
   26663   26661   26664   26665   26668   26671   26665   26668   26670
   26665   26668   26669   26666   26665   26668   26666   26665   26667
   26667   26665   26668   26668   26671   26674   26668   26671   26673
   26668   26671   26672   26669   26668   26671   26669   26668   26670
   26670   26668   26671   26671   26674   26677   26671   26674   26676
   26671   26674   26675   26672   26671   26674   26672   26671   26673
   26673   26671   26674   26674   26677   26680   26674   26677   26679
   26674   26677   26678   26675   26674   26677   26675   26674   26676
   26676   26674   26677   26677   26680   26683   26677   26680   26682
   26677   26680   26681   26678   26677   26680   26678   26677   26679
   26679   26677   26680   26680   26683   26686   26680   26683   26685
   26680   26683   26684   26681   26680   26683   26681   26680   26682
   26682   26680   26683   26683   26686   26689   26683   26686   26688
   26683   26686   26687   26684   26683   26686   26684   26683   26685
   26685   26683   26686   26686   26689   26692   26686   26689   26691
   26686   26689   26690   26687   26686   26689   26687   26686   26688
   26688   26686   26689   26689   26692   26695   26689   26692   26694
   26689   26692   26693   26690   26689   26692   26690   26689   26691
   26691   26689   26692   26692   26695   26698   26692   26695   26697
   26692   26695   26696   26693   26692   26695   26693   26692   26694
   26694   26692   26695   26695   26698   26701   26695   26698   26700
   26695   26698   26699   26696   26695   26698   26696   26695   26697
   26697   26695   26698   26699   26698   26701   26699   26698   26700
   26700   26698   26701   26702   26715   26718   26702   26715   26717
   26702   26715   26716   26702   26711   26714   26702   26711   26713
   26702   26711   26712   26702   26707   26710   26702   26707   26709
   26702   26707   26708   26702   26703   26706   26702   26703   26705
   26702   26703   26704   26703   26702   26715   26703   26702   26711
   26703   26702   26707   26704   26703   26706   26704   26703   26705
   26705   26703   26706   26707   26702   26715   26707   26702   26711
   26708   26707   26710   26708   26707   26709   26709   26707   26710
   26711   26702   26715   26712   26711   26714   26712   26711   26713
   26713   26711   26714   26715   26718   26725   26715   26718   26720
   26715   26718   26719   26716   26715   26718   26716   26715   26717
   26717   26715   26718   26718   26725   26721   26719   26718   26725
   26719   26718   26720   26720   26718   26725   26721   26724   26726
   26722   26721   26723   26722   26721   26724   26722   26721   26725
   26723   26721   26724   26723   26721   26725   26724   26721   26725
   26724   26726   26727   26724   26726   26728   26724   26726   26729
   26726   26729   26731   26726   26729   26737   26726   26729   26730
   26727   26726   26729   26727   26726   26728   26728   26726   26729
   26729   26737   26740   26729   26737   26739   26729   26737   26738
   26729   26731   26732   26730   26729   26731   26730   26729   26737
   26731   26732   26733   26731   26732   26734   26731   26729   26737
   26732   26734   26746   26732   26734   26736   26732   26734   26735
   26733   26732   26734   26734   26746   26749   26734   26746   26748
   26734   26746   26747   26735   26734   26746   26735   26734   26736
   26736   26734   26746   26737   26740   26741   26738   26737   26740
   26738   26737   26739   26739   26737   26740   26740   26741   26742
   26740   26741   26743   26741   26743   26783   26741   26743   26745
   26741   26743   26744   26742   26741   26743   26743   26783   26786
   26743   26783   26785   26743   26783   26784   26744   26743   26783
   26744   26743   26745   26745   26743   26783   26746   26749   26752
   26746   26749   26751   26746   26749   26750   26747   26746   26749
   26747   26746   26748   26748   26746   26749   26749   26752   26755
   26749   26752   26754   26749   26752   26753   26750   26749   26752
   26750   26749   26751   26751   26749   26752   26752   26755   26758
   26752   26755   26757   26752   26755   26756   26753   26752   26755
   26753   26752   26754   26754   26752   26755   26755   26758   26761
   26755   26758   26760   26755   26758   26759   26756   26755   26758
   26756   26755   26757   26757   26755   26758   26758   26761   26764
   26758   26761   26763   26758   26761   26762   26759   26758   26761
   26759   26758   26760   26760   26758   26761   26761   26764   26767
   26761   26764   26766   26761   26764   26765   26762   26761   26764
   26762   26761   26763   26763   26761   26764   26764   26767   26770
   26764   26767   26769   26764   26767   26768   26765   26764   26767
   26765   26764   26766   26766   26764   26767   26767   26770   26773
   26767   26770   26772   26767   26770   26771   26768   26767   26770
   26768   26767   26769   26769   26767   26770   26770   26773   26776
   26770   26773   26775   26770   26773   26774   26771   26770   26773
   26771   26770   26772   26772   26770   26773   26773   26776   26779
   26773   26776   26778   26773   26776   26777   26774   26773   26776
   26774   26773   26775   26775   26773   26776   26776   26779   26782
   26776   26779   26781   26776   26779   26780   26777   26776   26779
   26777   26776   26778   26778   26776   26779   26780   26779   26782
   26780   26779   26781   26781   26779   26782   26783   26786   26789
   26783   26786   26788   26783   26786   26787   26784   26783   26786
   26784   26783   26785   26785   26783   26786   26786   26789   26792
   26786   26789   26791   26786   26789   26790   26787   26786   26789
   26787   26786   26788   26788   26786   26789   26789   26792   26795
   26789   26792   26794   26789   26792   26793   26790   26789   26792
   26790   26789   26791   26791   26789   26792   26792   26795   26798
   26792   26795   26797   26792   26795   26796   26793   26792   26795
   26793   26792   26794   26794   26792   26795   26795   26798   26801
   26795   26798   26800   26795   26798   26799   26796   26795   26798
   26796   26795   26797   26797   26795   26798   26798   26801   26804
   26798   26801   26803   26798   26801   26802   26799   26798   26801
   26799   26798   26800   26800   26798   26801   26801   26804   26807
   26801   26804   26806   26801   26804   26805   26802   26801   26804
   26802   26801   26803   26803   26801   26804   26804   26807   26810
   26804   26807   26809   26804   26807   26808   26805   26804   26807
   26805   26804   26806   26806   26804   26807   26807   26810   26813
   26807   26810   26812   26807   26810   26811   26808   26807   26810
   26808   26807   26809   26809   26807   26810   26810   26813   26816
   26810   26813   26815   26810   26813   26814   26811   26810   26813
   26811   26810   26812   26812   26810   26813   26813   26816   26819
   26813   26816   26818   26813   26816   26817   26814   26813   26816
   26814   26813   26815   26815   26813   26816   26817   26816   26819
   26817   26816   26818   26818   26816   26819   26820   26833   26836
   26820   26833   26835   26820   26833   26834   26820   26829   26832
   26820   26829   26831   26820   26829   26830   26820   26825   26828
   26820   26825   26827   26820   26825   26826   26820   26821   26824
   26820   26821   26823   26820   26821   26822   26821   26820   26833
   26821   26820   26829   26821   26820   26825   26822   26821   26824
   26822   26821   26823   26823   26821   26824   26825   26820   26833
   26825   26820   26829   26826   26825   26828   26826   26825   26827
   26827   26825   26828   26829   26820   26833   26830   26829   26832
   26830   26829   26831   26831   26829   26832   26833   26836   26843
   26833   26836   26838   26833   26836   26837   26834   26833   26836
   26834   26833   26835   26835   26833   26836   26836   26843   26839
   26837   26836   26843   26837   26836   26838   26838   26836   26843
   26839   26842   26844   26840   26839   26841   26840   26839   26842
   26840   26839   26843   26841   26839   26842   26841   26839   26843
   26842   26839   26843   26842   26844   26845   26842   26844   26846
   26842   26844   26847   26844   26847   26849   26844   26847   26855
   26844   26847   26848   26845   26844   26847   26845   26844   26846
   26846   26844   26847   26847   26855   26858   26847   26855   26857
   26847   26855   26856   26847   26849   26850   26848   26847   26849
   26848   26847   26855   26849   26850   26851   26849   26850   26852
   26849   26847   26855   26850   26852   26864   26850   26852   26854
   26850   26852   26853   26851   26850   26852   26852   26864   26867
   26852   26864   26866   26852   26864   26865   26853   26852   26864
   26853   26852   26854   26854   26852   26864   26855   26858   26859
   26856   26855   26858   26856   26855   26857   26857   26855   26858
   26858   26859   26860   26858   26859   26861   26859   26861   26901
   26859   26861   26863   26859   26861   26862   26860   26859   26861
   26861   26901   26904   26861   26901   26903   26861   26901   26902
   26862   26861   26901   26862   26861   26863   26863   26861   26901
   26864   26867   26870   26864   26867   26869   26864   26867   26868
   26865   26864   26867   26865   26864   26866   26866   26864   26867
   26867   26870   26873   26867   26870   26872   26867   26870   26871
   26868   26867   26870   26868   26867   26869   26869   26867   26870
   26870   26873   26876   26870   26873   26875   26870   26873   26874
   26871   26870   26873   26871   26870   26872   26872   26870   26873
   26873   26876   26879   26873   26876   26878   26873   26876   26877
   26874   26873   26876   26874   26873   26875   26875   26873   26876
   26876   26879   26882   26876   26879   26881   26876   26879   26880
   26877   26876   26879   26877   26876   26878   26878   26876   26879
   26879   26882   26885   26879   26882   26884   26879   26882   26883
   26880   26879   26882   26880   26879   26881   26881   26879   26882
   26882   26885   26888   26882   26885   26887   26882   26885   26886
   26883   26882   26885   26883   26882   26884   26884   26882   26885
   26885   26888   26891   26885   26888   26890   26885   26888   26889
   26886   26885   26888   26886   26885   26887   26887   26885   26888
   26888   26891   26894   26888   26891   26893   26888   26891   26892
   26889   26888   26891   26889   26888   26890   26890   26888   26891
   26891   26894   26897   26891   26894   26896   26891   26894   26895
   26892   26891   26894   26892   26891   26893   26893   26891   26894
   26894   26897   26900   26894   26897   26899   26894   26897   26898
   26895   26894   26897   26895   26894   26896   26896   26894   26897
   26898   26897   26900   26898   26897   26899   26899   26897   26900
   26901   26904   26907   26901   26904   26906   26901   26904   26905
   26902   26901   26904   26902   26901   26903   26903   26901   26904
   26904   26907   26910   26904   26907   26909   26904   26907   26908
   26905   26904   26907   26905   26904   26906   26906   26904   26907
   26907   26910   26913   26907   26910   26912   26907   26910   26911
   26908   26907   26910   26908   26907   26909   26909   26907   26910
   26910   26913   26916   26910   26913   26915   26910   26913   26914
   26911   26910   26913   26911   26910   26912   26912   26910   26913
   26913   26916   26919   26913   26916   26918   26913   26916   26917
   26914   26913   26916   26914   26913   26915   26915   26913   26916
   26916   26919   26922   26916   26919   26921   26916   26919   26920
   26917   26916   26919   26917   26916   26918   26918   26916   26919
   26919   26922   26925   26919   26922   26924   26919   26922   26923
   26920   26919   26922   26920   26919   26921   26921   26919   26922
   26922   26925   26928   26922   26925   26927   26922   26925   26926
   26923   26922   26925   26923   26922   26924   26924   26922   26925
   26925   26928   26931   26925   26928   26930   26925   26928   26929
   26926   26925   26928   26926   26925   26927   26927   26925   26928
   26928   26931   26934   26928   26931   26933   26928   26931   26932
   26929   26928   26931   26929   26928   26930   26930   26928   26931
   26931   26934   26937   26931   26934   26936   26931   26934   26935
   26932   26931   26934   26932   26931   26933   26933   26931   26934
   26935   26934   26937   26935   26934   26936   26936   26934   26937
   26938   26951   26954   26938   26951   26953   26938   26951   26952
   26938   26947   26950   26938   26947   26949   26938   26947   26948
   26938   26943   26946   26938   26943   26945   26938   26943   26944
   26938   26939   26942   26938   26939   26941   26938   26939   26940
   26939   26938   26951   26939   26938   26947   26939   26938   26943
   26940   26939   26942   26940   26939   26941   26941   26939   26942
   26943   26938   26951   26943   26938   26947   26944   26943   26946
   26944   26943   26945   26945   26943   26946   26947   26938   26951
   26948   26947   26950   26948   26947   26949   26949   26947   26950
   26951   26954   26961   26951   26954   26956   26951   26954   26955
   26952   26951   26954   26952   26951   26953   26953   26951   26954
   26954   26961   26957   26955   26954   26961   26955   26954   26956
   26956   26954   26961   26957   26960   26962   26958   26957   26959
   26958   26957   26960   26958   26957   26961   26959   26957   26960
   26959   26957   26961   26960   26957   26961   26960   26962   26963
   26960   26962   26964   26960   26962   26965   26962   26965   26967
   26962   26965   26973   26962   26965   26966   26963   26962   26965
   26963   26962   26964   26964   26962   26965   26965   26973   26976
   26965   26973   26975   26965   26973   26974   26965   26967   26968
   26966   26965   26967   26966   26965   26973   26967   26968   26969
   26967   26968   26970   26967   26965   26973   26968   26970   26982
   26968   26970   26972   26968   26970   26971   26969   26968   26970
   26970   26982   26985   26970   26982   26984   26970   26982   26983
   26971   26970   26982   26971   26970   26972   26972   26970   26982
   26973   26976   26977   26974   26973   26976   26974   26973   26975
   26975   26973   26976   26976   26977   26978   26976   26977   26979
   26977   26979   27019   26977   26979   26981   26977   26979   26980
   26978   26977   26979   26979   27019   27022   26979   27019   27021
   26979   27019   27020   26980   26979   27019   26980   26979   26981
   26981   26979   27019   26982   26985   26988   26982   26985   26987
   26982   26985   26986   26983   26982   26985   26983   26982   26984
   26984   26982   26985   26985   26988   26991   26985   26988   26990
   26985   26988   26989   26986   26985   26988   26986   26985   26987
   26987   26985   26988   26988   26991   26994   26988   26991   26993
   26988   26991   26992   26989   26988   26991   26989   26988   26990
   26990   26988   26991   26991   26994   26997   26991   26994   26996
   26991   26994   26995   26992   26991   26994   26992   26991   26993
   26993   26991   26994   26994   26997   27000   26994   26997   26999
   26994   26997   26998   26995   26994   26997   26995   26994   26996
   26996   26994   26997   26997   27000   27003   26997   27000   27002
   26997   27000   27001   26998   26997   27000   26998   26997   26999
   26999   26997   27000   27000   27003   27006   27000   27003   27005
   27000   27003   27004   27001   27000   27003   27001   27000   27002
   27002   27000   27003   27003   27006   27009   27003   27006   27008
   27003   27006   27007   27004   27003   27006   27004   27003   27005
   27005   27003   27006   27006   27009   27012   27006   27009   27011
   27006   27009   27010   27007   27006   27009   27007   27006   27008
   27008   27006   27009   27009   27012   27015   27009   27012   27014
   27009   27012   27013   27010   27009   27012   27010   27009   27011
   27011   27009   27012   27012   27015   27018   27012   27015   27017
   27012   27015   27016   27013   27012   27015   27013   27012   27014
   27014   27012   27015   27016   27015   27018   27016   27015   27017
   27017   27015   27018   27019   27022   27025   27019   27022   27024
   27019   27022   27023   27020   27019   27022   27020   27019   27021
   27021   27019   27022   27022   27025   27028   27022   27025   27027
   27022   27025   27026   27023   27022   27025   27023   27022   27024
   27024   27022   27025   27025   27028   27031   27025   27028   27030
   27025   27028   27029   27026   27025   27028   27026   27025   27027
   27027   27025   27028   27028   27031   27034   27028   27031   27033
   27028   27031   27032   27029   27028   27031   27029   27028   27030
   27030   27028   27031   27031   27034   27037   27031   27034   27036
   27031   27034   27035   27032   27031   27034   27032   27031   27033
   27033   27031   27034   27034   27037   27040   27034   27037   27039
   27034   27037   27038   27035   27034   27037   27035   27034   27036
   27036   27034   27037   27037   27040   27043   27037   27040   27042
   27037   27040   27041   27038   27037   27040   27038   27037   27039
   27039   27037   27040   27040   27043   27046   27040   27043   27045
   27040   27043   27044   27041   27040   27043   27041   27040   27042
   27042   27040   27043   27043   27046   27049   27043   27046   27048
   27043   27046   27047   27044   27043   27046   27044   27043   27045
   27045   27043   27046   27046   27049   27052   27046   27049   27051
   27046   27049   27050   27047   27046   27049   27047   27046   27048
   27048   27046   27049   27049   27052   27055   27049   27052   27054
   27049   27052   27053   27050   27049   27052   27050   27049   27051
   27051   27049   27052   27053   27052   27055   27053   27052   27054
   27054   27052   27055   27056   27069   27072   27056   27069   27071
   27056   27069   27070   27056   27065   27068   27056   27065   27067
   27056   27065   27066   27056   27061   27064   27056   27061   27063
   27056   27061   27062   27056   27057   27060   27056   27057   27059
   27056   27057   27058   27057   27056   27069   27057   27056   27065
   27057   27056   27061   27058   27057   27060   27058   27057   27059
   27059   27057   27060   27061   27056   27069   27061   27056   27065
   27062   27061   27064   27062   27061   27063   27063   27061   27064
   27065   27056   27069   27066   27065   27068   27066   27065   27067
   27067   27065   27068   27069   27072   27079   27069   27072   27074
   27069   27072   27073   27070   27069   27072   27070   27069   27071
   27071   27069   27072   27072   27079   27075   27073   27072   27079
   27073   27072   27074   27074   27072   27079   27075   27078   27080
   27076   27075   27077   27076   27075   27078   27076   27075   27079
   27077   27075   27078   27077   27075   27079   27078   27075   27079
   27078   27080   27081   27078   27080   27082   27078   27080   27083
   27080   27083   27085   27080   27083   27091   27080   27083   27084
   27081   27080   27083   27081   27080   27082   27082   27080   27083
   27083   27091   27094   27083   27091   27093   27083   27091   27092
   27083   27085   27086   27084   27083   27085   27084   27083   27091
   27085   27086   27087   27085   27086   27088   27085   27083   27091
   27086   27088   27100   27086   27088   27090   27086   27088   27089
   27087   27086   27088   27088   27100   27103   27088   27100   27102
   27088   27100   27101   27089   27088   27100   27089   27088   27090
   27090   27088   27100   27091   27094   27095   27092   27091   27094
   27092   27091   27093   27093   27091   27094   27094   27095   27096
   27094   27095   27097   27095   27097   27137   27095   27097   27099
   27095   27097   27098   27096   27095   27097   27097   27137   27140
   27097   27137   27139   27097   27137   27138   27098   27097   27137
   27098   27097   27099   27099   27097   27137   27100   27103   27106
   27100   27103   27105   27100   27103   27104   27101   27100   27103
   27101   27100   27102   27102   27100   27103   27103   27106   27109
   27103   27106   27108   27103   27106   27107   27104   27103   27106
   27104   27103   27105   27105   27103   27106   27106   27109   27112
   27106   27109   27111   27106   27109   27110   27107   27106   27109
   27107   27106   27108   27108   27106   27109   27109   27112   27115
   27109   27112   27114   27109   27112   27113   27110   27109   27112
   27110   27109   27111   27111   27109   27112   27112   27115   27118
   27112   27115   27117   27112   27115   27116   27113   27112   27115
   27113   27112   27114   27114   27112   27115   27115   27118   27121
   27115   27118   27120   27115   27118   27119   27116   27115   27118
   27116   27115   27117   27117   27115   27118   27118   27121   27124
   27118   27121   27123   27118   27121   27122   27119   27118   27121
   27119   27118   27120   27120   27118   27121   27121   27124   27127
   27121   27124   27126   27121   27124   27125   27122   27121   27124
   27122   27121   27123   27123   27121   27124   27124   27127   27130
   27124   27127   27129   27124   27127   27128   27125   27124   27127
   27125   27124   27126   27126   27124   27127   27127   27130   27133
   27127   27130   27132   27127   27130   27131   27128   27127   27130
   27128   27127   27129   27129   27127   27130   27130   27133   27136
   27130   27133   27135   27130   27133   27134   27131   27130   27133
   27131   27130   27132   27132   27130   27133   27134   27133   27136
   27134   27133   27135   27135   27133   27136   27137   27140   27143
   27137   27140   27142   27137   27140   27141   27138   27137   27140
   27138   27137   27139   27139   27137   27140   27140   27143   27146
   27140   27143   27145   27140   27143   27144   27141   27140   27143
   27141   27140   27142   27142   27140   27143   27143   27146   27149
   27143   27146   27148   27143   27146   27147   27144   27143   27146
   27144   27143   27145   27145   27143   27146   27146   27149   27152
   27146   27149   27151   27146   27149   27150   27147   27146   27149
   27147   27146   27148   27148   27146   27149   27149   27152   27155
   27149   27152   27154   27149   27152   27153   27150   27149   27152
   27150   27149   27151   27151   27149   27152   27152   27155   27158
   27152   27155   27157   27152   27155   27156   27153   27152   27155
   27153   27152   27154   27154   27152   27155   27155   27158   27161
   27155   27158   27160   27155   27158   27159   27156   27155   27158
   27156   27155   27157   27157   27155   27158   27158   27161   27164
   27158   27161   27163   27158   27161   27162   27159   27158   27161
   27159   27158   27160   27160   27158   27161   27161   27164   27167
   27161   27164   27166   27161   27164   27165   27162   27161   27164
   27162   27161   27163   27163   27161   27164   27164   27167   27170
   27164   27167   27169   27164   27167   27168   27165   27164   27167
   27165   27164   27166   27166   27164   27167   27167   27170   27173
   27167   27170   27172   27167   27170   27171   27168   27167   27170
   27168   27167   27169   27169   27167   27170   27171   27170   27173
   27171   27170   27172   27172   27170   27173   27174   27187   27190
   27174   27187   27189   27174   27187   27188   27174   27183   27186
   27174   27183   27185   27174   27183   27184   27174   27179   27182
   27174   27179   27181   27174   27179   27180   27174   27175   27178
   27174   27175   27177   27174   27175   27176   27175   27174   27187
   27175   27174   27183   27175   27174   27179   27176   27175   27178
   27176   27175   27177   27177   27175   27178   27179   27174   27187
   27179   27174   27183   27180   27179   27182   27180   27179   27181
   27181   27179   27182   27183   27174   27187   27184   27183   27186
   27184   27183   27185   27185   27183   27186   27187   27190   27197
   27187   27190   27192   27187   27190   27191   27188   27187   27190
   27188   27187   27189   27189   27187   27190   27190   27197   27193
   27191   27190   27197   27191   27190   27192   27192   27190   27197
   27193   27196   27198   27194   27193   27195   27194   27193   27196
   27194   27193   27197   27195   27193   27196   27195   27193   27197
   27196   27193   27197   27196   27198   27199   27196   27198   27200
   27196   27198   27201   27198   27201   27203   27198   27201   27209
   27198   27201   27202   27199   27198   27201   27199   27198   27200
   27200   27198   27201   27201   27209   27212   27201   27209   27211
   27201   27209   27210   27201   27203   27204   27202   27201   27203
   27202   27201   27209   27203   27204   27205   27203   27204   27206
   27203   27201   27209   27204   27206   27218   27204   27206   27208
   27204   27206   27207   27205   27204   27206   27206   27218   27221
   27206   27218   27220   27206   27218   27219   27207   27206   27218
   27207   27206   27208   27208   27206   27218   27209   27212   27213
   27210   27209   27212   27210   27209   27211   27211   27209   27212
   27212   27213   27214   27212   27213   27215   27213   27215   27255
   27213   27215   27217   27213   27215   27216   27214   27213   27215
   27215   27255   27258   27215   27255   27257   27215   27255   27256
   27216   27215   27255   27216   27215   27217   27217   27215   27255
   27218   27221   27224   27218   27221   27223   27218   27221   27222
   27219   27218   27221   27219   27218   27220   27220   27218   27221
   27221   27224   27227   27221   27224   27226   27221   27224   27225
   27222   27221   27224   27222   27221   27223   27223   27221   27224
   27224   27227   27230   27224   27227   27229   27224   27227   27228
   27225   27224   27227   27225   27224   27226   27226   27224   27227
   27227   27230   27233   27227   27230   27232   27227   27230   27231
   27228   27227   27230   27228   27227   27229   27229   27227   27230
   27230   27233   27236   27230   27233   27235   27230   27233   27234
   27231   27230   27233   27231   27230   27232   27232   27230   27233
   27233   27236   27239   27233   27236   27238   27233   27236   27237
   27234   27233   27236   27234   27233   27235   27235   27233   27236
   27236   27239   27242   27236   27239   27241   27236   27239   27240
   27237   27236   27239   27237   27236   27238   27238   27236   27239
   27239   27242   27245   27239   27242   27244   27239   27242   27243
   27240   27239   27242   27240   27239   27241   27241   27239   27242
   27242   27245   27248   27242   27245   27247   27242   27245   27246
   27243   27242   27245   27243   27242   27244   27244   27242   27245
   27245   27248   27251   27245   27248   27250   27245   27248   27249
   27246   27245   27248   27246   27245   27247   27247   27245   27248
   27248   27251   27254   27248   27251   27253   27248   27251   27252
   27249   27248   27251   27249   27248   27250   27250   27248   27251
   27252   27251   27254   27252   27251   27253   27253   27251   27254
   27255   27258   27261   27255   27258   27260   27255   27258   27259
   27256   27255   27258   27256   27255   27257   27257   27255   27258
   27258   27261   27264   27258   27261   27263   27258   27261   27262
   27259   27258   27261   27259   27258   27260   27260   27258   27261
   27261   27264   27267   27261   27264   27266   27261   27264   27265
   27262   27261   27264   27262   27261   27263   27263   27261   27264
   27264   27267   27270   27264   27267   27269   27264   27267   27268
   27265   27264   27267   27265   27264   27266   27266   27264   27267
   27267   27270   27273   27267   27270   27272   27267   27270   27271
   27268   27267   27270   27268   27267   27269   27269   27267   27270
   27270   27273   27276   27270   27273   27275   27270   27273   27274
   27271   27270   27273   27271   27270   27272   27272   27270   27273
   27273   27276   27279   27273   27276   27278   27273   27276   27277
   27274   27273   27276   27274   27273   27275   27275   27273   27276
   27276   27279   27282   27276   27279   27281   27276   27279   27280
   27277   27276   27279   27277   27276   27278   27278   27276   27279
   27279   27282   27285   27279   27282   27284   27279   27282   27283
   27280   27279   27282   27280   27279   27281   27281   27279   27282
   27282   27285   27288   27282   27285   27287   27282   27285   27286
   27283   27282   27285   27283   27282   27284   27284   27282   27285
   27285   27288   27291   27285   27288   27290   27285   27288   27289
   27286   27285   27288   27286   27285   27287   27287   27285   27288
   27289   27288   27291   27289   27288   27290   27290   27288   27291
   27292   27305   27308   27292   27305   27307   27292   27305   27306
   27292   27301   27304   27292   27301   27303   27292   27301   27302
   27292   27297   27300   27292   27297   27299   27292   27297   27298
   27292   27293   27296   27292   27293   27295   27292   27293   27294
   27293   27292   27305   27293   27292   27301   27293   27292   27297
   27294   27293   27296   27294   27293   27295   27295   27293   27296
   27297   27292   27305   27297   27292   27301   27298   27297   27300
   27298   27297   27299   27299   27297   27300   27301   27292   27305
   27302   27301   27304   27302   27301   27303   27303   27301   27304
   27305   27308   27315   27305   27308   27310   27305   27308   27309
   27306   27305   27308   27306   27305   27307   27307   27305   27308
   27308   27315   27311   27309   27308   27315   27309   27308   27310
   27310   27308   27315   27311   27314   27316   27312   27311   27313
   27312   27311   27314   27312   27311   27315   27313   27311   27314
   27313   27311   27315   27314   27311   27315   27314   27316   27317
   27314   27316   27318   27314   27316   27319   27316   27319   27321
   27316   27319   27327   27316   27319   27320   27317   27316   27319
   27317   27316   27318   27318   27316   27319   27319   27327   27330
   27319   27327   27329   27319   27327   27328   27319   27321   27322
   27320   27319   27321   27320   27319   27327   27321   27322   27323
   27321   27322   27324   27321   27319   27327   27322   27324   27336
   27322   27324   27326   27322   27324   27325   27323   27322   27324
   27324   27336   27339   27324   27336   27338   27324   27336   27337
   27325   27324   27336   27325   27324   27326   27326   27324   27336
   27327   27330   27331   27328   27327   27330   27328   27327   27329
   27329   27327   27330   27330   27331   27332   27330   27331   27333
   27331   27333   27373   27331   27333   27335   27331   27333   27334
   27332   27331   27333   27333   27373   27376   27333   27373   27375
   27333   27373   27374   27334   27333   27373   27334   27333   27335
   27335   27333   27373   27336   27339   27342   27336   27339   27341
   27336   27339   27340   27337   27336   27339   27337   27336   27338
   27338   27336   27339   27339   27342   27345   27339   27342   27344
   27339   27342   27343   27340   27339   27342   27340   27339   27341
   27341   27339   27342   27342   27345   27348   27342   27345   27347
   27342   27345   27346   27343   27342   27345   27343   27342   27344
   27344   27342   27345   27345   27348   27351   27345   27348   27350
   27345   27348   27349   27346   27345   27348   27346   27345   27347
   27347   27345   27348   27348   27351   27354   27348   27351   27353
   27348   27351   27352   27349   27348   27351   27349   27348   27350
   27350   27348   27351   27351   27354   27357   27351   27354   27356
   27351   27354   27355   27352   27351   27354   27352   27351   27353
   27353   27351   27354   27354   27357   27360   27354   27357   27359
   27354   27357   27358   27355   27354   27357   27355   27354   27356
   27356   27354   27357   27357   27360   27363   27357   27360   27362
   27357   27360   27361   27358   27357   27360   27358   27357   27359
   27359   27357   27360   27360   27363   27366   27360   27363   27365
   27360   27363   27364   27361   27360   27363   27361   27360   27362
   27362   27360   27363   27363   27366   27369   27363   27366   27368
   27363   27366   27367   27364   27363   27366   27364   27363   27365
   27365   27363   27366   27366   27369   27372   27366   27369   27371
   27366   27369   27370   27367   27366   27369   27367   27366   27368
   27368   27366   27369   27370   27369   27372   27370   27369   27371
   27371   27369   27372   27373   27376   27379   27373   27376   27378
   27373   27376   27377   27374   27373   27376   27374   27373   27375
   27375   27373   27376   27376   27379   27382   27376   27379   27381
   27376   27379   27380   27377   27376   27379   27377   27376   27378
   27378   27376   27379   27379   27382   27385   27379   27382   27384
   27379   27382   27383   27380   27379   27382   27380   27379   27381
   27381   27379   27382   27382   27385   27388   27382   27385   27387
   27382   27385   27386   27383   27382   27385   27383   27382   27384
   27384   27382   27385   27385   27388   27391   27385   27388   27390
   27385   27388   27389   27386   27385   27388   27386   27385   27387
   27387   27385   27388   27388   27391   27394   27388   27391   27393
   27388   27391   27392   27389   27388   27391   27389   27388   27390
   27390   27388   27391   27391   27394   27397   27391   27394   27396
   27391   27394   27395   27392   27391   27394   27392   27391   27393
   27393   27391   27394   27394   27397   27400   27394   27397   27399
   27394   27397   27398   27395   27394   27397   27395   27394   27396
   27396   27394   27397   27397   27400   27403   27397   27400   27402
   27397   27400   27401   27398   27397   27400   27398   27397   27399
   27399   27397   27400   27400   27403   27406   27400   27403   27405
   27400   27403   27404   27401   27400   27403   27401   27400   27402
   27402   27400   27403   27403   27406   27409   27403   27406   27408
   27403   27406   27407   27404   27403   27406   27404   27403   27405
   27405   27403   27406   27407   27406   27409   27407   27406   27408
   27408   27406   27409   27410   27423   27426   27410   27423   27425
   27410   27423   27424   27410   27419   27422   27410   27419   27421
   27410   27419   27420   27410   27415   27418   27410   27415   27417
   27410   27415   27416   27410   27411   27414   27410   27411   27413
   27410   27411   27412   27411   27410   27423   27411   27410   27419
   27411   27410   27415   27412   27411   27414   27412   27411   27413
   27413   27411   27414   27415   27410   27423   27415   27410   27419
   27416   27415   27418   27416   27415   27417   27417   27415   27418
   27419   27410   27423   27420   27419   27422   27420   27419   27421
   27421   27419   27422   27423   27426   27433   27423   27426   27428
   27423   27426   27427   27424   27423   27426   27424   27423   27425
   27425   27423   27426   27426   27433   27429   27427   27426   27433
   27427   27426   27428   27428   27426   27433   27429   27432   27434
   27430   27429   27431   27430   27429   27432   27430   27429   27433
   27431   27429   27432   27431   27429   27433   27432   27429   27433
   27432   27434   27435   27432   27434   27436   27432   27434   27437
   27434   27437   27439   27434   27437   27445   27434   27437   27438
   27435   27434   27437   27435   27434   27436   27436   27434   27437
   27437   27445   27448   27437   27445   27447   27437   27445   27446
   27437   27439   27440   27438   27437   27439   27438   27437   27445
   27439   27440   27441   27439   27440   27442   27439   27437   27445
   27440   27442   27454   27440   27442   27444   27440   27442   27443
   27441   27440   27442   27442   27454   27457   27442   27454   27456
   27442   27454   27455   27443   27442   27454   27443   27442   27444
   27444   27442   27454   27445   27448   27449   27446   27445   27448
   27446   27445   27447   27447   27445   27448   27448   27449   27450
   27448   27449   27451   27449   27451   27491   27449   27451   27453
   27449   27451   27452   27450   27449   27451   27451   27491   27494
   27451   27491   27493   27451   27491   27492   27452   27451   27491
   27452   27451   27453   27453   27451   27491   27454   27457   27460
   27454   27457   27459   27454   27457   27458   27455   27454   27457
   27455   27454   27456   27456   27454   27457   27457   27460   27463
   27457   27460   27462   27457   27460   27461   27458   27457   27460
   27458   27457   27459   27459   27457   27460   27460   27463   27466
   27460   27463   27465   27460   27463   27464   27461   27460   27463
   27461   27460   27462   27462   27460   27463   27463   27466   27469
   27463   27466   27468   27463   27466   27467   27464   27463   27466
   27464   27463   27465   27465   27463   27466   27466   27469   27472
   27466   27469   27471   27466   27469   27470   27467   27466   27469
   27467   27466   27468   27468   27466   27469   27469   27472   27475
   27469   27472   27474   27469   27472   27473   27470   27469   27472
   27470   27469   27471   27471   27469   27472   27472   27475   27478
   27472   27475   27477   27472   27475   27476   27473   27472   27475
   27473   27472   27474   27474   27472   27475   27475   27478   27481
   27475   27478   27480   27475   27478   27479   27476   27475   27478
   27476   27475   27477   27477   27475   27478   27478   27481   27484
   27478   27481   27483   27478   27481   27482   27479   27478   27481
   27479   27478   27480   27480   27478   27481   27481   27484   27487
   27481   27484   27486   27481   27484   27485   27482   27481   27484
   27482   27481   27483   27483   27481   27484   27484   27487   27490
   27484   27487   27489   27484   27487   27488   27485   27484   27487
   27485   27484   27486   27486   27484   27487   27488   27487   27490
   27488   27487   27489   27489   27487   27490   27491   27494   27497
   27491   27494   27496   27491   27494   27495   27492   27491   27494
   27492   27491   27493   27493   27491   27494   27494   27497   27500
   27494   27497   27499   27494   27497   27498   27495   27494   27497
   27495   27494   27496   27496   27494   27497   27497   27500   27503
   27497   27500   27502   27497   27500   27501   27498   27497   27500
   27498   27497   27499   27499   27497   27500   27500   27503   27506
   27500   27503   27505   27500   27503   27504   27501   27500   27503
   27501   27500   27502   27502   27500   27503   27503   27506   27509
   27503   27506   27508   27503   27506   27507   27504   27503   27506
   27504   27503   27505   27505   27503   27506   27506   27509   27512
   27506   27509   27511   27506   27509   27510   27507   27506   27509
   27507   27506   27508   27508   27506   27509   27509   27512   27515
   27509   27512   27514   27509   27512   27513   27510   27509   27512
   27510   27509   27511   27511   27509   27512   27512   27515   27518
   27512   27515   27517   27512   27515   27516   27513   27512   27515
   27513   27512   27514   27514   27512   27515   27515   27518   27521
   27515   27518   27520   27515   27518   27519   27516   27515   27518
   27516   27515   27517   27517   27515   27518   27518   27521   27524
   27518   27521   27523   27518   27521   27522   27519   27518   27521
   27519   27518   27520   27520   27518   27521   27521   27524   27527
   27521   27524   27526   27521   27524   27525   27522   27521   27524
   27522   27521   27523   27523   27521   27524   27525   27524   27527
   27525   27524   27526   27526   27524   27527   27528   27541   27544
   27528   27541   27543   27528   27541   27542   27528   27537   27540
   27528   27537   27539   27528   27537   27538   27528   27533   27536
   27528   27533   27535   27528   27533   27534   27528   27529   27532
   27528   27529   27531   27528   27529   27530   27529   27528   27541
   27529   27528   27537   27529   27528   27533   27530   27529   27532
   27530   27529   27531   27531   27529   27532   27533   27528   27541
   27533   27528   27537   27534   27533   27536   27534   27533   27535
   27535   27533   27536   27537   27528   27541   27538   27537   27540
   27538   27537   27539   27539   27537   27540   27541   27544   27551
   27541   27544   27546   27541   27544   27545   27542   27541   27544
   27542   27541   27543   27543   27541   27544   27544   27551   27547
   27545   27544   27551   27545   27544   27546   27546   27544   27551
   27547   27550   27552   27548   27547   27549   27548   27547   27550
   27548   27547   27551   27549   27547   27550   27549   27547   27551
   27550   27547   27551   27550   27552   27553   27550   27552   27554
   27550   27552   27555   27552   27555   27557   27552   27555   27563
   27552   27555   27556   27553   27552   27555   27553   27552   27554
   27554   27552   27555   27555   27563   27566   27555   27563   27565
   27555   27563   27564   27555   27557   27558   27556   27555   27557
   27556   27555   27563   27557   27558   27559   27557   27558   27560
   27557   27555   27563   27558   27560   27572   27558   27560   27562
   27558   27560   27561   27559   27558   27560   27560   27572   27575
   27560   27572   27574   27560   27572   27573   27561   27560   27572
   27561   27560   27562   27562   27560   27572   27563   27566   27567
   27564   27563   27566   27564   27563   27565   27565   27563   27566
   27566   27567   27568   27566   27567   27569   27567   27569   27609
   27567   27569   27571   27567   27569   27570   27568   27567   27569
   27569   27609   27612   27569   27609   27611   27569   27609   27610
   27570   27569   27609   27570   27569   27571   27571   27569   27609
   27572   27575   27578   27572   27575   27577   27572   27575   27576
   27573   27572   27575   27573   27572   27574   27574   27572   27575
   27575   27578   27581   27575   27578   27580   27575   27578   27579
   27576   27575   27578   27576   27575   27577   27577   27575   27578
   27578   27581   27584   27578   27581   27583   27578   27581   27582
   27579   27578   27581   27579   27578   27580   27580   27578   27581
   27581   27584   27587   27581   27584   27586   27581   27584   27585
   27582   27581   27584   27582   27581   27583   27583   27581   27584
   27584   27587   27590   27584   27587   27589   27584   27587   27588
   27585   27584   27587   27585   27584   27586   27586   27584   27587
   27587   27590   27593   27587   27590   27592   27587   27590   27591
   27588   27587   27590   27588   27587   27589   27589   27587   27590
   27590   27593   27596   27590   27593   27595   27590   27593   27594
   27591   27590   27593   27591   27590   27592   27592   27590   27593
   27593   27596   27599   27593   27596   27598   27593   27596   27597
   27594   27593   27596   27594   27593   27595   27595   27593   27596
   27596   27599   27602   27596   27599   27601   27596   27599   27600
   27597   27596   27599   27597   27596   27598   27598   27596   27599
   27599   27602   27605   27599   27602   27604   27599   27602   27603
   27600   27599   27602   27600   27599   27601   27601   27599   27602
   27602   27605   27608   27602   27605   27607   27602   27605   27606
   27603   27602   27605   27603   27602   27604   27604   27602   27605
   27606   27605   27608   27606   27605   27607   27607   27605   27608
   27609   27612   27615   27609   27612   27614   27609   27612   27613
   27610   27609   27612   27610   27609   27611   27611   27609   27612
   27612   27615   27618   27612   27615   27617   27612   27615   27616
   27613   27612   27615   27613   27612   27614   27614   27612   27615
   27615   27618   27621   27615   27618   27620   27615   27618   27619
   27616   27615   27618   27616   27615   27617   27617   27615   27618
   27618   27621   27624   27618   27621   27623   27618   27621   27622
   27619   27618   27621   27619   27618   27620   27620   27618   27621
   27621   27624   27627   27621   27624   27626   27621   27624   27625
   27622   27621   27624   27622   27621   27623   27623   27621   27624
   27624   27627   27630   27624   27627   27629   27624   27627   27628
   27625   27624   27627   27625   27624   27626   27626   27624   27627
   27627   27630   27633   27627   27630   27632   27627   27630   27631
   27628   27627   27630   27628   27627   27629   27629   27627   27630
   27630   27633   27636   27630   27633   27635   27630   27633   27634
   27631   27630   27633   27631   27630   27632   27632   27630   27633
   27633   27636   27639   27633   27636   27638   27633   27636   27637
   27634   27633   27636   27634   27633   27635   27635   27633   27636
   27636   27639   27642   27636   27639   27641   27636   27639   27640
   27637   27636   27639   27637   27636   27638   27638   27636   27639
   27639   27642   27645   27639   27642   27644   27639   27642   27643
   27640   27639   27642   27640   27639   27641   27641   27639   27642
   27643   27642   27645   27643   27642   27644   27644   27642   27645
   27646   27659   27662   27646   27659   27661   27646   27659   27660
   27646   27655   27658   27646   27655   27657   27646   27655   27656
   27646   27651   27654   27646   27651   27653   27646   27651   27652
   27646   27647   27650   27646   27647   27649   27646   27647   27648
   27647   27646   27659   27647   27646   27655   27647   27646   27651
   27648   27647   27650   27648   27647   27649   27649   27647   27650
   27651   27646   27659   27651   27646   27655   27652   27651   27654
   27652   27651   27653   27653   27651   27654   27655   27646   27659
   27656   27655   27658   27656   27655   27657   27657   27655   27658
   27659   27662   27669   27659   27662   27664   27659   27662   27663
   27660   27659   27662   27660   27659   27661   27661   27659   27662
   27662   27669   27665   27663   27662   27669   27663   27662   27664
   27664   27662   27669   27665   27668   27670   27666   27665   27667
   27666   27665   27668   27666   27665   27669   27667   27665   27668
   27667   27665   27669   27668   27665   27669   27668   27670   27671
   27668   27670   27672   27668   27670   27673   27670   27673   27675
   27670   27673   27681   27670   27673   27674   27671   27670   27673
   27671   27670   27672   27672   27670   27673   27673   27681   27684
   27673   27681   27683   27673   27681   27682   27673   27675   27676
   27674   27673   27675   27674   27673   27681   27675   27676   27677
   27675   27676   27678   27675   27673   27681   27676   27678   27690
   27676   27678   27680   27676   27678   27679   27677   27676   27678
   27678   27690   27693   27678   27690   27692   27678   27690   27691
   27679   27678   27690   27679   27678   27680   27680   27678   27690
   27681   27684   27685   27682   27681   27684   27682   27681   27683
   27683   27681   27684   27684   27685   27686   27684   27685   27687
   27685   27687   27727   27685   27687   27689   27685   27687   27688
   27686   27685   27687   27687   27727   27730   27687   27727   27729
   27687   27727   27728   27688   27687   27727   27688   27687   27689
   27689   27687   27727   27690   27693   27696   27690   27693   27695
   27690   27693   27694   27691   27690   27693   27691   27690   27692
   27692   27690   27693   27693   27696   27699   27693   27696   27698
   27693   27696   27697   27694   27693   27696   27694   27693   27695
   27695   27693   27696   27696   27699   27702   27696   27699   27701
   27696   27699   27700   27697   27696   27699   27697   27696   27698
   27698   27696   27699   27699   27702   27705   27699   27702   27704
   27699   27702   27703   27700   27699   27702   27700   27699   27701
   27701   27699   27702   27702   27705   27708   27702   27705   27707
   27702   27705   27706   27703   27702   27705   27703   27702   27704
   27704   27702   27705   27705   27708   27711   27705   27708   27710
   27705   27708   27709   27706   27705   27708   27706   27705   27707
   27707   27705   27708   27708   27711   27714   27708   27711   27713
   27708   27711   27712   27709   27708   27711   27709   27708   27710
   27710   27708   27711   27711   27714   27717   27711   27714   27716
   27711   27714   27715   27712   27711   27714   27712   27711   27713
   27713   27711   27714   27714   27717   27720   27714   27717   27719
   27714   27717   27718   27715   27714   27717   27715   27714   27716
   27716   27714   27717   27717   27720   27723   27717   27720   27722
   27717   27720   27721   27718   27717   27720   27718   27717   27719
   27719   27717   27720   27720   27723   27726   27720   27723   27725
   27720   27723   27724   27721   27720   27723   27721   27720   27722
   27722   27720   27723   27724   27723   27726   27724   27723   27725
   27725   27723   27726   27727   27730   27733   27727   27730   27732
   27727   27730   27731   27728   27727   27730   27728   27727   27729
   27729   27727   27730   27730   27733   27736   27730   27733   27735
   27730   27733   27734   27731   27730   27733   27731   27730   27732
   27732   27730   27733   27733   27736   27739   27733   27736   27738
   27733   27736   27737   27734   27733   27736   27734   27733   27735
   27735   27733   27736   27736   27739   27742   27736   27739   27741
   27736   27739   27740   27737   27736   27739   27737   27736   27738
   27738   27736   27739   27739   27742   27745   27739   27742   27744
   27739   27742   27743   27740   27739   27742   27740   27739   27741
   27741   27739   27742   27742   27745   27748   27742   27745   27747
   27742   27745   27746   27743   27742   27745   27743   27742   27744
   27744   27742   27745   27745   27748   27751   27745   27748   27750
   27745   27748   27749   27746   27745   27748   27746   27745   27747
   27747   27745   27748   27748   27751   27754   27748   27751   27753
   27748   27751   27752   27749   27748   27751   27749   27748   27750
   27750   27748   27751   27751   27754   27757   27751   27754   27756
   27751   27754   27755   27752   27751   27754   27752   27751   27753
   27753   27751   27754   27754   27757   27760   27754   27757   27759
   27754   27757   27758   27755   27754   27757   27755   27754   27756
   27756   27754   27757   27757   27760   27763   27757   27760   27762
   27757   27760   27761   27758   27757   27760   27758   27757   27759
   27759   27757   27760   27761   27760   27763   27761   27760   27762
   27762   27760   27763   27764   27777   27780   27764   27777   27779
   27764   27777   27778   27764   27773   27776   27764   27773   27775
   27764   27773   27774   27764   27769   27772   27764   27769   27771
   27764   27769   27770   27764   27765   27768   27764   27765   27767
   27764   27765   27766   27765   27764   27777   27765   27764   27773
   27765   27764   27769   27766   27765   27768   27766   27765   27767
   27767   27765   27768   27769   27764   27777   27769   27764   27773
   27770   27769   27772   27770   27769   27771   27771   27769   27772
   27773   27764   27777   27774   27773   27776   27774   27773   27775
   27775   27773   27776   27777   27780   27787   27777   27780   27782
   27777   27780   27781   27778   27777   27780   27778   27777   27779
   27779   27777   27780   27780   27787   27783   27781   27780   27787
   27781   27780   27782   27782   27780   27787   27783   27786   27788
   27784   27783   27785   27784   27783   27786   27784   27783   27787
   27785   27783   27786   27785   27783   27787   27786   27783   27787
   27786   27788   27789   27786   27788   27790   27786   27788   27791
   27788   27791   27793   27788   27791   27799   27788   27791   27792
   27789   27788   27791   27789   27788   27790   27790   27788   27791
   27791   27799   27802   27791   27799   27801   27791   27799   27800
   27791   27793   27794   27792   27791   27793   27792   27791   27799
   27793   27794   27795   27793   27794   27796   27793   27791   27799
   27794   27796   27808   27794   27796   27798   27794   27796   27797
   27795   27794   27796   27796   27808   27811   27796   27808   27810
   27796   27808   27809   27797   27796   27808   27797   27796   27798
   27798   27796   27808   27799   27802   27803   27800   27799   27802
   27800   27799   27801   27801   27799   27802   27802   27803   27804
   27802   27803   27805   27803   27805   27845   27803   27805   27807
   27803   27805   27806   27804   27803   27805   27805   27845   27848
   27805   27845   27847   27805   27845   27846   27806   27805   27845
   27806   27805   27807   27807   27805   27845   27808   27811   27814
   27808   27811   27813   27808   27811   27812   27809   27808   27811
   27809   27808   27810   27810   27808   27811   27811   27814   27817
   27811   27814   27816   27811   27814   27815   27812   27811   27814
   27812   27811   27813   27813   27811   27814   27814   27817   27820
   27814   27817   27819   27814   27817   27818   27815   27814   27817
   27815   27814   27816   27816   27814   27817   27817   27820   27823
   27817   27820   27822   27817   27820   27821   27818   27817   27820
   27818   27817   27819   27819   27817   27820   27820   27823   27826
   27820   27823   27825   27820   27823   27824   27821   27820   27823
   27821   27820   27822   27822   27820   27823   27823   27826   27829
   27823   27826   27828   27823   27826   27827   27824   27823   27826
   27824   27823   27825   27825   27823   27826   27826   27829   27832
   27826   27829   27831   27826   27829   27830   27827   27826   27829
   27827   27826   27828   27828   27826   27829   27829   27832   27835
   27829   27832   27834   27829   27832   27833   27830   27829   27832
   27830   27829   27831   27831   27829   27832   27832   27835   27838
   27832   27835   27837   27832   27835   27836   27833   27832   27835
   27833   27832   27834   27834   27832   27835   27835   27838   27841
   27835   27838   27840   27835   27838   27839   27836   27835   27838
   27836   27835   27837   27837   27835   27838   27838   27841   27844
   27838   27841   27843   27838   27841   27842   27839   27838   27841
   27839   27838   27840   27840   27838   27841   27842   27841   27844
   27842   27841   27843   27843   27841   27844   27845   27848   27851
   27845   27848   27850   27845   27848   27849   27846   27845   27848
   27846   27845   27847   27847   27845   27848   27848   27851   27854
   27848   27851   27853   27848   27851   27852   27849   27848   27851
   27849   27848   27850   27850   27848   27851   27851   27854   27857
   27851   27854   27856   27851   27854   27855   27852   27851   27854
   27852   27851   27853   27853   27851   27854   27854   27857   27860
   27854   27857   27859   27854   27857   27858   27855   27854   27857
   27855   27854   27856   27856   27854   27857   27857   27860   27863
   27857   27860   27862   27857   27860   27861   27858   27857   27860
   27858   27857   27859   27859   27857   27860   27860   27863   27866
   27860   27863   27865   27860   27863   27864   27861   27860   27863
   27861   27860   27862   27862   27860   27863   27863   27866   27869
   27863   27866   27868   27863   27866   27867   27864   27863   27866
   27864   27863   27865   27865   27863   27866   27866   27869   27872
   27866   27869   27871   27866   27869   27870   27867   27866   27869
   27867   27866   27868   27868   27866   27869   27869   27872   27875
   27869   27872   27874   27869   27872   27873   27870   27869   27872
   27870   27869   27871   27871   27869   27872   27872   27875   27878
   27872   27875   27877   27872   27875   27876   27873   27872   27875
   27873   27872   27874   27874   27872   27875   27875   27878   27881
   27875   27878   27880   27875   27878   27879   27876   27875   27878
   27876   27875   27877   27877   27875   27878   27879   27878   27881
   27879   27878   27880   27880   27878   27881   27882   27895   27898
   27882   27895   27897   27882   27895   27896   27882   27891   27894
   27882   27891   27893   27882   27891   27892   27882   27887   27890
   27882   27887   27889   27882   27887   27888   27882   27883   27886
   27882   27883   27885   27882   27883   27884   27883   27882   27895
   27883   27882   27891   27883   27882   27887   27884   27883   27886
   27884   27883   27885   27885   27883   27886   27887   27882   27895
   27887   27882   27891   27888   27887   27890   27888   27887   27889
   27889   27887   27890   27891   27882   27895   27892   27891   27894
   27892   27891   27893   27893   27891   27894   27895   27898   27905
   27895   27898   27900   27895   27898   27899   27896   27895   27898
   27896   27895   27897   27897   27895   27898   27898   27905   27901
   27899   27898   27905   27899   27898   27900   27900   27898   27905
   27901   27904   27906   27902   27901   27903   27902   27901   27904
   27902   27901   27905   27903   27901   27904   27903   27901   27905
   27904   27901   27905   27904   27906   27907   27904   27906   27908
   27904   27906   27909   27906   27909   27911   27906   27909   27917
   27906   27909   27910   27907   27906   27909   27907   27906   27908
   27908   27906   27909   27909   27917   27920   27909   27917   27919
   27909   27917   27918   27909   27911   27912   27910   27909   27911
   27910   27909   27917   27911   27912   27913   27911   27912   27914
   27911   27909   27917   27912   27914   27926   27912   27914   27916
   27912   27914   27915   27913   27912   27914   27914   27926   27929
   27914   27926   27928   27914   27926   27927   27915   27914   27926
   27915   27914   27916   27916   27914   27926   27917   27920   27921
   27918   27917   27920   27918   27917   27919   27919   27917   27920
   27920   27921   27922   27920   27921   27923   27921   27923   27963
   27921   27923   27925   27921   27923   27924   27922   27921   27923
   27923   27963   27966   27923   27963   27965   27923   27963   27964
   27924   27923   27963   27924   27923   27925   27925   27923   27963
   27926   27929   27932   27926   27929   27931   27926   27929   27930
   27927   27926   27929   27927   27926   27928   27928   27926   27929
   27929   27932   27935   27929   27932   27934   27929   27932   27933
   27930   27929   27932   27930   27929   27931   27931   27929   27932
   27932   27935   27938   27932   27935   27937   27932   27935   27936
   27933   27932   27935   27933   27932   27934   27934   27932   27935
   27935   27938   27941   27935   27938   27940   27935   27938   27939
   27936   27935   27938   27936   27935   27937   27937   27935   27938
   27938   27941   27944   27938   27941   27943   27938   27941   27942
   27939   27938   27941   27939   27938   27940   27940   27938   27941
   27941   27944   27947   27941   27944   27946   27941   27944   27945
   27942   27941   27944   27942   27941   27943   27943   27941   27944
   27944   27947   27950   27944   27947   27949   27944   27947   27948
   27945   27944   27947   27945   27944   27946   27946   27944   27947
   27947   27950   27953   27947   27950   27952   27947   27950   27951
   27948   27947   27950   27948   27947   27949   27949   27947   27950
   27950   27953   27956   27950   27953   27955   27950   27953   27954
   27951   27950   27953   27951   27950   27952   27952   27950   27953
   27953   27956   27959   27953   27956   27958   27953   27956   27957
   27954   27953   27956   27954   27953   27955   27955   27953   27956
   27956   27959   27962   27956   27959   27961   27956   27959   27960
   27957   27956   27959   27957   27956   27958   27958   27956   27959
   27960   27959   27962   27960   27959   27961   27961   27959   27962
   27963   27966   27969   27963   27966   27968   27963   27966   27967
   27964   27963   27966   27964   27963   27965   27965   27963   27966
   27966   27969   27972   27966   27969   27971   27966   27969   27970
   27967   27966   27969   27967   27966   27968   27968   27966   27969
   27969   27972   27975   27969   27972   27974   27969   27972   27973
   27970   27969   27972   27970   27969   27971   27971   27969   27972
   27972   27975   27978   27972   27975   27977   27972   27975   27976
   27973   27972   27975   27973   27972   27974   27974   27972   27975
   27975   27978   27981   27975   27978   27980   27975   27978   27979
   27976   27975   27978   27976   27975   27977   27977   27975   27978
   27978   27981   27984   27978   27981   27983   27978   27981   27982
   27979   27978   27981   27979   27978   27980   27980   27978   27981
   27981   27984   27987   27981   27984   27986   27981   27984   27985
   27982   27981   27984   27982   27981   27983   27983   27981   27984
   27984   27987   27990   27984   27987   27989   27984   27987   27988
   27985   27984   27987   27985   27984   27986   27986   27984   27987
   27987   27990   27993   27987   27990   27992   27987   27990   27991
   27988   27987   27990   27988   27987   27989   27989   27987   27990
   27990   27993   27996   27990   27993   27995   27990   27993   27994
   27991   27990   27993   27991   27990   27992   27992   27990   27993
   27993   27996   27999   27993   27996   27998   27993   27996   27997
   27994   27993   27996   27994   27993   27995   27995   27993   27996
   27997   27996   27999   27997   27996   27998   27998   27996   27999
   28000   28013   28016   28000   28013   28015   28000   28013   28014
   28000   28009   28012   28000   28009   28011   28000   28009   28010
   28000   28005   28008   28000   28005   28007   28000   28005   28006
   28000   28001   28004   28000   28001   28003   28000   28001   28002
   28001   28000   28013   28001   28000   28009   28001   28000   28005
   28002   28001   28004   28002   28001   28003   28003   28001   28004
   28005   28000   28013   28005   28000   28009   28006   28005   28008
   28006   28005   28007   28007   28005   28008   28009   28000   28013
   28010   28009   28012   28010   28009   28011   28011   28009   28012
   28013   28016   28023   28013   28016   28018   28013   28016   28017
   28014   28013   28016   28014   28013   28015   28015   28013   28016
   28016   28023   28019   28017   28016   28023   28017   28016   28018
   28018   28016   28023   28019   28022   28024   28020   28019   28021
   28020   28019   28022   28020   28019   28023   28021   28019   28022
   28021   28019   28023   28022   28019   28023   28022   28024   28025
   28022   28024   28026   28022   28024   28027   28024   28027   28029
   28024   28027   28035   28024   28027   28028   28025   28024   28027
   28025   28024   28026   28026   28024   28027   28027   28035   28038
   28027   28035   28037   28027   28035   28036   28027   28029   28030
   28028   28027   28029   28028   28027   28035   28029   28030   28031
   28029   28030   28032   28029   28027   28035   28030   28032   28044
   28030   28032   28034   28030   28032   28033   28031   28030   28032
   28032   28044   28047   28032   28044   28046   28032   28044   28045
   28033   28032   28044   28033   28032   28034   28034   28032   28044
   28035   28038   28039   28036   28035   28038   28036   28035   28037
   28037   28035   28038   28038   28039   28040   28038   28039   28041
   28039   28041   28081   28039   28041   28043   28039   28041   28042
   28040   28039   28041   28041   28081   28084   28041   28081   28083
   28041   28081   28082   28042   28041   28081   28042   28041   28043
   28043   28041   28081   28044   28047   28050   28044   28047   28049
   28044   28047   28048   28045   28044   28047   28045   28044   28046
   28046   28044   28047   28047   28050   28053   28047   28050   28052
   28047   28050   28051   28048   28047   28050   28048   28047   28049
   28049   28047   28050   28050   28053   28056   28050   28053   28055
   28050   28053   28054   28051   28050   28053   28051   28050   28052
   28052   28050   28053   28053   28056   28059   28053   28056   28058
   28053   28056   28057   28054   28053   28056   28054   28053   28055
   28055   28053   28056   28056   28059   28062   28056   28059   28061
   28056   28059   28060   28057   28056   28059   28057   28056   28058
   28058   28056   28059   28059   28062   28065   28059   28062   28064
   28059   28062   28063   28060   28059   28062   28060   28059   28061
   28061   28059   28062   28062   28065   28068   28062   28065   28067
   28062   28065   28066   28063   28062   28065   28063   28062   28064
   28064   28062   28065   28065   28068   28071   28065   28068   28070
   28065   28068   28069   28066   28065   28068   28066   28065   28067
   28067   28065   28068   28068   28071   28074   28068   28071   28073
   28068   28071   28072   28069   28068   28071   28069   28068   28070
   28070   28068   28071   28071   28074   28077   28071   28074   28076
   28071   28074   28075   28072   28071   28074   28072   28071   28073
   28073   28071   28074   28074   28077   28080   28074   28077   28079
   28074   28077   28078   28075   28074   28077   28075   28074   28076
   28076   28074   28077   28078   28077   28080   28078   28077   28079
   28079   28077   28080   28081   28084   28087   28081   28084   28086
   28081   28084   28085   28082   28081   28084   28082   28081   28083
   28083   28081   28084   28084   28087   28090   28084   28087   28089
   28084   28087   28088   28085   28084   28087   28085   28084   28086
   28086   28084   28087   28087   28090   28093   28087   28090   28092
   28087   28090   28091   28088   28087   28090   28088   28087   28089
   28089   28087   28090   28090   28093   28096   28090   28093   28095
   28090   28093   28094   28091   28090   28093   28091   28090   28092
   28092   28090   28093   28093   28096   28099   28093   28096   28098
   28093   28096   28097   28094   28093   28096   28094   28093   28095
   28095   28093   28096   28096   28099   28102   28096   28099   28101
   28096   28099   28100   28097   28096   28099   28097   28096   28098
   28098   28096   28099   28099   28102   28105   28099   28102   28104
   28099   28102   28103   28100   28099   28102   28100   28099   28101
   28101   28099   28102   28102   28105   28108   28102   28105   28107
   28102   28105   28106   28103   28102   28105   28103   28102   28104
   28104   28102   28105   28105   28108   28111   28105   28108   28110
   28105   28108   28109   28106   28105   28108   28106   28105   28107
   28107   28105   28108   28108   28111   28114   28108   28111   28113
   28108   28111   28112   28109   28108   28111   28109   28108   28110
   28110   28108   28111   28111   28114   28117   28111   28114   28116
   28111   28114   28115   28112   28111   28114   28112   28111   28113
   28113   28111   28114   28115   28114   28117   28115   28114   28116
   28116   28114   28117   28118   28131   28134   28118   28131   28133
   28118   28131   28132   28118   28127   28130   28118   28127   28129
   28118   28127   28128   28118   28123   28126   28118   28123   28125
   28118   28123   28124   28118   28119   28122   28118   28119   28121
   28118   28119   28120   28119   28118   28131   28119   28118   28127
   28119   28118   28123   28120   28119   28122   28120   28119   28121
   28121   28119   28122   28123   28118   28131   28123   28118   28127
   28124   28123   28126   28124   28123   28125   28125   28123   28126
   28127   28118   28131   28128   28127   28130   28128   28127   28129
   28129   28127   28130   28131   28134   28141   28131   28134   28136
   28131   28134   28135   28132   28131   28134   28132   28131   28133
   28133   28131   28134   28134   28141   28137   28135   28134   28141
   28135   28134   28136   28136   28134   28141   28137   28140   28142
   28138   28137   28139   28138   28137   28140   28138   28137   28141
   28139   28137   28140   28139   28137   28141   28140   28137   28141
   28140   28142   28143   28140   28142   28144   28140   28142   28145
   28142   28145   28147   28142   28145   28153   28142   28145   28146
   28143   28142   28145   28143   28142   28144   28144   28142   28145
   28145   28153   28156   28145   28153   28155   28145   28153   28154
   28145   28147   28148   28146   28145   28147   28146   28145   28153
   28147   28148   28149   28147   28148   28150   28147   28145   28153
   28148   28150   28162   28148   28150   28152   28148   28150   28151
   28149   28148   28150   28150   28162   28165   28150   28162   28164
   28150   28162   28163   28151   28150   28162   28151   28150   28152
   28152   28150   28162   28153   28156   28157   28154   28153   28156
   28154   28153   28155   28155   28153   28156   28156   28157   28158
   28156   28157   28159   28157   28159   28199   28157   28159   28161
   28157   28159   28160   28158   28157   28159   28159   28199   28202
   28159   28199   28201   28159   28199   28200   28160   28159   28199
   28160   28159   28161   28161   28159   28199   28162   28165   28168
   28162   28165   28167   28162   28165   28166   28163   28162   28165
   28163   28162   28164   28164   28162   28165   28165   28168   28171
   28165   28168   28170   28165   28168   28169   28166   28165   28168
   28166   28165   28167   28167   28165   28168   28168   28171   28174
   28168   28171   28173   28168   28171   28172   28169   28168   28171
   28169   28168   28170   28170   28168   28171   28171   28174   28177
   28171   28174   28176   28171   28174   28175   28172   28171   28174
   28172   28171   28173   28173   28171   28174   28174   28177   28180
   28174   28177   28179   28174   28177   28178   28175   28174   28177
   28175   28174   28176   28176   28174   28177   28177   28180   28183
   28177   28180   28182   28177   28180   28181   28178   28177   28180
   28178   28177   28179   28179   28177   28180   28180   28183   28186
   28180   28183   28185   28180   28183   28184   28181   28180   28183
   28181   28180   28182   28182   28180   28183   28183   28186   28189
   28183   28186   28188   28183   28186   28187   28184   28183   28186
   28184   28183   28185   28185   28183   28186   28186   28189   28192
   28186   28189   28191   28186   28189   28190   28187   28186   28189
   28187   28186   28188   28188   28186   28189   28189   28192   28195
   28189   28192   28194   28189   28192   28193   28190   28189   28192
   28190   28189   28191   28191   28189   28192   28192   28195   28198
   28192   28195   28197   28192   28195   28196   28193   28192   28195
   28193   28192   28194   28194   28192   28195   28196   28195   28198
   28196   28195   28197   28197   28195   28198   28199   28202   28205
   28199   28202   28204   28199   28202   28203   28200   28199   28202
   28200   28199   28201   28201   28199   28202   28202   28205   28208
   28202   28205   28207   28202   28205   28206   28203   28202   28205
   28203   28202   28204   28204   28202   28205   28205   28208   28211
   28205   28208   28210   28205   28208   28209   28206   28205   28208
   28206   28205   28207   28207   28205   28208   28208   28211   28214
   28208   28211   28213   28208   28211   28212   28209   28208   28211
   28209   28208   28210   28210   28208   28211   28211   28214   28217
   28211   28214   28216   28211   28214   28215   28212   28211   28214
   28212   28211   28213   28213   28211   28214   28214   28217   28220
   28214   28217   28219   28214   28217   28218   28215   28214   28217
   28215   28214   28216   28216   28214   28217   28217   28220   28223
   28217   28220   28222   28217   28220   28221   28218   28217   28220
   28218   28217   28219   28219   28217   28220   28220   28223   28226
   28220   28223   28225   28220   28223   28224   28221   28220   28223
   28221   28220   28222   28222   28220   28223   28223   28226   28229
   28223   28226   28228   28223   28226   28227   28224   28223   28226
   28224   28223   28225   28225   28223   28226   28226   28229   28232
   28226   28229   28231   28226   28229   28230   28227   28226   28229
   28227   28226   28228   28228   28226   28229   28229   28232   28235
   28229   28232   28234   28229   28232   28233   28230   28229   28232
   28230   28229   28231   28231   28229   28232   28233   28232   28235
   28233   28232   28234   28234   28232   28235

   40064 !NPHI: dihedrals
   13132   13145   13148   13149   13132   13145   13148   13150
   13132   13145   13148   13155   13133   13132   13137   13138
   13133   13132   13137   13139   13133   13132   13137   13140
   13133   13132   13141   13142   13133   13132   13141   13143
   13133   13132   13141   13144   13133   13132   13145   13146
   13133   13132   13145   13147   13133   13132   13145   13148
   13137   13132   13133   13134   13137   13132   13133   13135
   13137   13132   13133   13136   13137   13132   13141   13142
   13137   13132   13141   13143   13137   13132   13141   13144
   13137   13132   13145   13146   13137   13132   13145   13147
   13137   13132   13145   13148   13141   13132   13133   13134
   13141   13132   13133   13135   13141   13132   13133   13136
   13141   13132   13137   13138   13141   13132   13137   13139
   13141   13132   13137   13140   13141   13132   13145   13146
   13141   13132   13145   13147   13141   13132   13145   13148
   13145   13132   13133   13134   13145   13132   13133   13135
   13145   13132   13133   13136   13145   13132   13137   13138
   13145   13132   13137   13139   13145   13132   13137   13140
   13145   13132   13141   13142   13145   13132   13141   13143
   13145   13132   13141   13144   13145   13148   13155   13151
   13146   13145   13148   13149   13146   13145   13148   13150
   13146   13145   13148   13155   13147   13145   13148   13149
   13147   13145   13148   13150   13147   13145   13148   13155
   13149   13148   13155   13151   13150   13148   13155   13151
   13151   13154   13156   13157   13151   13154   13156   13158
   13151   13154   13156   13159   13152   13151   13155   13148
   13152   13151   13154   13156   13153   13151   13155   13148
   13153   13151   13154   13156   13154   13151   13155   13148
   13154   13156   13159   13160   13154   13156   13159   13167
   13154   13156   13159   13161   13155   13151   13154   13156
   13156   13159   13167   13168   13156   13159   13167   13169
   13156   13159   13167   13170   13156   13159   13161   13162
   13157   13156   13159   13160   13157   13156   13159   13167
   13157   13156   13159   13161   13158   13156   13159   13160
   13158   13156   13159   13167   13158   13156   13159   13161
   13159   13167   13170   13171   13159   13161   13162   13164
   13159   13161   13162   13163   13160   13159   13167   13168
   13160   13159   13167   13169   13160   13159   13167   13170
   13160   13159   13161   13162   13161   13162   13164   13165
   13161   13162   13164   13166   13161   13162   13164   13176
   13161   13159   13167   13168   13161   13159   13167   13169
   13161   13159   13167   13170   13162   13164   13176   13177
   13162   13164   13176   13178   13162   13164   13176   13179
   13163   13162   13164   13165   13163   13162   13164   13166
   13163   13162   13164   13176   13164   13176   13179   13180
   13164   13176   13179   13181   13164   13176   13179   13182
   13165   13164   13176   13177   13165   13164   13176   13178
   13165   13164   13176   13179   13166   13164   13176   13177
   13166   13164   13176   13178   13166   13164   13176   13179
   13167   13159   13161   13162   13167   13170   13171   13173
   13167   13170   13171   13172   13168   13167   13170   13171
   13169   13167   13170   13171   13170   13171   13173   13174
   13170   13171   13173   13175   13170   13171   13173   13213
   13171   13173   13213   13214   13171   13173   13213   13215
   13171   13173   13213   13216   13172   13171   13173   13174
   13172   13171   13173   13175   13172   13171   13173   13213
   13173   13213   13216   13217   13173   13213   13216   13218
   13173   13213   13216   13219   13174   13173   13213   13214
   13174   13173   13213   13215   13174   13173   13213   13216
   13175   13173   13213   13214   13175   13173   13213   13215
   13175   13173   13213   13216   13176   13179   13182   13183
   13176   13179   13182   13184   13176   13179   13182   13185
   13177   13176   13179   13180   13177   13176   13179   13181
   13177   13176   13179   13182   13178   13176   13179   13180
   13178   13176   13179   13181   13178   13176   13179   13182
   13179   13182   13185   13186   13179   13182   13185   13187
   13179   13182   13185   13188   13180   13179   13182   13183
   13180   13179   13182   13184   13180   13179   13182   13185
   13181   13179   13182   13183   13181   13179   13182   13184
   13181   13179   13182   13185   13182   13185   13188   13189
   13182   13185   13188   13190   13182   13185   13188   13191
   13183   13182   13185   13186   13183   13182   13185   13187
   13183   13182   13185   13188   13184   13182   13185   13186
   13184   13182   13185   13187   13184   13182   13185   13188
   13185   13188   13191   13192   13185   13188   13191   13193
   13185   13188   13191   13194   13186   13185   13188   13189
   13186   13185   13188   13190   13186   13185   13188   13191
   13187   13185   13188   13189   13187   13185   13188   13190
   13187   13185   13188   13191   13188   13191   13194   13195
   13188   13191   13194   13196   13188   13191   13194   13197
   13189   13188   13191   13192   13189   13188   13191   13193
   13189   13188   13191   13194   13190   13188   13191   13192
   13190   13188   13191   13193   13190   13188   13191   13194
   13191   13194   13197   13198   13191   13194   13197   13199
   13191   13194   13197   13200   13192   13191   13194   13195
   13192   13191   13194   13196   13192   13191   13194   13197
   13193   13191   13194   13195   13193   13191   13194   13196
   13193   13191   13194   13197   13194   13197   13200   13201
   13194   13197   13200   13202   13194   13197   13200   13203
   13195   13194   13197   13198   13195   13194   13197   13199
   13195   13194   13197   13200   13196   13194   13197   13198
   13196   13194   13197   13199   13196   13194   13197   13200
   13197   13200   13203   13204   13197   13200   13203   13205
   13197   13200   13203   13206   13198   13197   13200   13201
   13198   13197   13200   13202   13198   13197   13200   13203
   13199   13197   13200   13201   13199   13197   13200   13202
   13199   13197   13200   13203   13200   13203   13206   13207
   13200   13203   13206   13208   13200   13203   13206   13209
   13201   13200   13203   13204   13201   13200   13203   13205
   13201   13200   13203   13206   13202   13200   13203   13204
   13202   13200   13203   13205   13202   13200   13203   13206
   13203   13206   13209   13210   13203   13206   13209   13211
   13203   13206   13209   13212   13204   13203   13206   13207
   13204   13203   13206   13208   13204   13203   13206   13209
   13205   13203   13206   13207   13205   13203   13206   13208
   13205   13203   13206   13209   13207   13206   13209   13210
   13207   13206   13209   13211   13207   13206   13209   13212
   13208   13206   13209   13210   13208   13206   13209   13211
   13208   13206   13209   13212   13213   13216   13219   13220
   13213   13216   13219   13221   13213   13216   13219   13222
   13214   13213   13216   13217   13214   13213   13216   13218
   13214   13213   13216   13219   13215   13213   13216   13217
   13215   13213   13216   13218   13215   13213   13216   13219
   13216   13219   13222   13223   13216   13219   13222   13224
   13216   13219   13222   13225   13217   13216   13219   13220
   13217   13216   13219   13221   13217   13216   13219   13222
   13218   13216   13219   13220   13218   13216   13219   13221
   13218   13216   13219   13222   13219   13222   13225   13226
   13219   13222   13225   13227   13219   13222   13225   13228
   13220   13219   13222   13223   13220   13219   13222   13224
   13220   13219   13222   13225   13221   13219   13222   13223
   13221   13219   13222   13224   13221   13219   13222   13225
   13222   13225   13228   13229   13222   13225   13228   13230
   13222   13225   13228   13231   13223   13222   13225   13226
   13223   13222   13225   13227   13223   13222   13225   13228
   13224   13222   13225   13226   13224   13222   13225   13227
   13224   13222   13225   13228   13225   13228   13231   13232
   13225   13228   13231   13233   13225   13228   13231   13234
   13226   13225   13228   13229   13226   13225   13228   13230
   13226   13225   13228   13231   13227   13225   13228   13229
   13227   13225   13228   13230   13227   13225   13228   13231
   13228   13231   13234   13235   13228   13231   13234   13236
   13228   13231   13234   13237   13229   13228   13231   13232
   13229   13228   13231   13233   13229   13228   13231   13234
   13230   13228   13231   13232   13230   13228   13231   13233
   13230   13228   13231   13234   13231   13234   13237   13238
   13231   13234   13237   13239   13231   13234   13237   13240
   13232   13231   13234   13235   13232   13231   13234   13236
   13232   13231   13234   13237   13233   13231   13234   13235
   13233   13231   13234   13236   13233   13231   13234   13237
   13234   13237   13240   13241   13234   13237   13240   13242
   13234   13237   13240   13243   13235   13234   13237   13238
   13235   13234   13237   13239   13235   13234   13237   13240
   13236   13234   13237   13238   13236   13234   13237   13239
   13236   13234   13237   13240   13237   13240   13243   13244
   13237   13240   13243   13245   13237   13240   13243   13246
   13238   13237   13240   13241   13238   13237   13240   13242
   13238   13237   13240   13243   13239   13237   13240   13241
   13239   13237   13240   13242   13239   13237   13240   13243
   13240   13243   13246   13247   13240   13243   13246   13248
   13240   13243   13246   13249   13241   13240   13243   13244
   13241   13240   13243   13245   13241   13240   13243   13246
   13242   13240   13243   13244   13242   13240   13243   13245
   13242   13240   13243   13246   13244   13243   13246   13247
   13244   13243   13246   13248   13244   13243   13246   13249
   13245   13243   13246   13247   13245   13243   13246   13248
   13245   13243   13246   13249   13250   13263   13266   13267
   13250   13263   13266   13268   13250   13263   13266   13273
   13251   13250   13255   13256   13251   13250   13255   13257
   13251   13250   13255   13258   13251   13250   13259   13260
   13251   13250   13259   13261   13251   13250   13259   13262
   13251   13250   13263   13264   13251   13250   13263   13265
   13251   13250   13263   13266   13255   13250   13251   13252
   13255   13250   13251   13253   13255   13250   13251   13254
   13255   13250   13259   13260   13255   13250   13259   13261
   13255   13250   13259   13262   13255   13250   13263   13264
   13255   13250   13263   13265   13255   13250   13263   13266
   13259   13250   13251   13252   13259   13250   13251   13253
   13259   13250   13251   13254   13259   13250   13255   13256
   13259   13250   13255   13257   13259   13250   13255   13258
   13259   13250   13263   13264   13259   13250   13263   13265
   13259   13250   13263   13266   13263   13250   13251   13252
   13263   13250   13251   13253   13263   13250   13251   13254
   13263   13250   13255   13256   13263   13250   13255   13257
   13263   13250   13255   13258   13263   13250   13259   13260
   13263   13250   13259   13261   13263   13250   13259   13262
   13263   13266   13273   13269   13264   13263   13266   13267
   13264   13263   13266   13268   13264   13263   13266   13273
   13265   13263   13266   13267   13265   13263   13266   13268
   13265   13263   13266   13273   13267   13266   13273   13269
   13268   13266   13273   13269   13269   13272   13274   13275
   13269   13272   13274   13276   13269   13272   13274   13277
   13270   13269   13273   13266   13270   13269   13272   13274
   13271   13269   13273   13266   13271   13269   13272   13274
   13272   13269   13273   13266   13272   13274   13277   13278
   13272   13274   13277   13285   13272   13274   13277   13279
   13273   13269   13272   13274   13274   13277   13285   13286
   13274   13277   13285   13287   13274   13277   13285   13288
   13274   13277   13279   13280   13275   13274   13277   13278
   13275   13274   13277   13285   13275   13274   13277   13279
   13276   13274   13277   13278   13276   13274   13277   13285
   13276   13274   13277   13279   13277   13285   13288   13289
   13277   13279   13280   13282   13277   13279   13280   13281
   13278   13277   13285   13286   13278   13277   13285   13287
   13278   13277   13285   13288   13278   13277   13279   13280
   13279   13280   13282   13283   13279   13280   13282   13284
   13279   13280   13282   13294   13279   13277   13285   13286
   13279   13277   13285   13287   13279   13277   13285   13288
   13280   13282   13294   13295   13280   13282   13294   13296
   13280   13282   13294   13297   13281   13280   13282   13283
   13281   13280   13282   13284   13281   13280   13282   13294
   13282   13294   13297   13298   13282   13294   13297   13299
   13282   13294   13297   13300   13283   13282   13294   13295
   13283   13282   13294   13296   13283   13282   13294   13297
   13284   13282   13294   13295   13284   13282   13294   13296
   13284   13282   13294   13297   13285   13277   13279   13280
   13285   13288   13289   13291   13285   13288   13289   13290
   13286   13285   13288   13289   13287   13285   13288   13289
   13288   13289   13291   13292   13288   13289   13291   13293
   13288   13289   13291   13331   13289   13291   13331   13332
   13289   13291   13331   13333   13289   13291   13331   13334
   13290   13289   13291   13292   13290   13289   13291   13293
   13290   13289   13291   13331   13291   13331   13334   13335
   13291   13331   13334   13336   13291   13331   13334   13337
   13292   13291   13331   13332   13292   13291   13331   13333
   13292   13291   13331   13334   13293   13291   13331   13332
   13293   13291   13331   13333   13293   13291   13331   13334
   13294   13297   13300   13301   13294   13297   13300   13302
   13294   13297   13300   13303   13295   13294   13297   13298
   13295   13294   13297   13299   13295   13294   13297   13300
   13296   13294   13297   13298   13296   13294   13297   13299
   13296   13294   13297   13300   13297   13300   13303   13304
   13297   13300   13303   13305   13297   13300   13303   13306
   13298   13297   13300   13301   13298   13297   13300   13302
   13298   13297   13300   13303   13299   13297   13300   13301
   13299   13297   13300   13302   13299   13297   13300   13303
   13300   13303   13306   13307   13300   13303   13306   13308
   13300   13303   13306   13309   13301   13300   13303   13304
   13301   13300   13303   13305   13301   13300   13303   13306
   13302   13300   13303   13304   13302   13300   13303   13305
   13302   13300   13303   13306   13303   13306   13309   13310
   13303   13306   13309   13311   13303   13306   13309   13312
   13304   13303   13306   13307   13304   13303   13306   13308
   13304   13303   13306   13309   13305   13303   13306   13307
   13305   13303   13306   13308   13305   13303   13306   13309
   13306   13309   13312   13313   13306   13309   13312   13314
   13306   13309   13312   13315   13307   13306   13309   13310
   13307   13306   13309   13311   13307   13306   13309   13312
   13308   13306   13309   13310   13308   13306   13309   13311
   13308   13306   13309   13312   13309   13312   13315   13316
   13309   13312   13315   13317   13309   13312   13315   13318
   13310   13309   13312   13313   13310   13309   13312   13314
   13310   13309   13312   13315   13311   13309   13312   13313
   13311   13309   13312   13314   13311   13309   13312   13315
   13312   13315   13318   13319   13312   13315   13318   13320
   13312   13315   13318   13321   13313   13312   13315   13316
   13313   13312   13315   13317   13313   13312   13315   13318
   13314   13312   13315   13316   13314   13312   13315   13317
   13314   13312   13315   13318   13315   13318   13321   13322
   13315   13318   13321   13323   13315   13318   13321   13324
   13316   13315   13318   13319   13316   13315   13318   13320
   13316   13315   13318   13321   13317   13315   13318   13319
   13317   13315   13318   13320   13317   13315   13318   13321
   13318   13321   13324   13325   13318   13321   13324   13326
   13318   13321   13324   13327   13319   13318   13321   13322
   13319   13318   13321   13323   13319   13318   13321   13324
   13320   13318   13321   13322   13320   13318   13321   13323
   13320   13318   13321   13324   13321   13324   13327   13328
   13321   13324   13327   13329   13321   13324   13327   13330
   13322   13321   13324   13325   13322   13321   13324   13326
   13322   13321   13324   13327   13323   13321   13324   13325
   13323   13321   13324   13326   13323   13321   13324   13327
   13325   13324   13327   13328   13325   13324   13327   13329
   13325   13324   13327   13330   13326   13324   13327   13328
   13326   13324   13327   13329   13326   13324   13327   13330
   13331   13334   13337   13338   13331   13334   13337   13339
   13331   13334   13337   13340   13332   13331   13334   13335
   13332   13331   13334   13336   13332   13331   13334   13337
   13333   13331   13334   13335   13333   13331   13334   13336
   13333   13331   13334   13337   13334   13337   13340   13341
   13334   13337   13340   13342   13334   13337   13340   13343
   13335   13334   13337   13338   13335   13334   13337   13339
   13335   13334   13337   13340   13336   13334   13337   13338
   13336   13334   13337   13339   13336   13334   13337   13340
   13337   13340   13343   13344   13337   13340   13343   13345
   13337   13340   13343   13346   13338   13337   13340   13341
   13338   13337   13340   13342   13338   13337   13340   13343
   13339   13337   13340   13341   13339   13337   13340   13342
   13339   13337   13340   13343   13340   13343   13346   13347
   13340   13343   13346   13348   13340   13343   13346   13349
   13341   13340   13343   13344   13341   13340   13343   13345
   13341   13340   13343   13346   13342   13340   13343   13344
   13342   13340   13343   13345   13342   13340   13343   13346
   13343   13346   13349   13350   13343   13346   13349   13351
   13343   13346   13349   13352   13344   13343   13346   13347
   13344   13343   13346   13348   13344   13343   13346   13349
   13345   13343   13346   13347   13345   13343   13346   13348
   13345   13343   13346   13349   13346   13349   13352   13353
   13346   13349   13352   13354   13346   13349   13352   13355
   13347   13346   13349   13350   13347   13346   13349   13351
   13347   13346   13349   13352   13348   13346   13349   13350
   13348   13346   13349   13351   13348   13346   13349   13352
   13349   13352   13355   13356   13349   13352   13355   13357
   13349   13352   13355   13358   13350   13349   13352   13353
   13350   13349   13352   13354   13350   13349   13352   13355
   13351   13349   13352   13353   13351   13349   13352   13354
   13351   13349   13352   13355   13352   13355   13358   13359
   13352   13355   13358   13360   13352   13355   13358   13361
   13353   13352   13355   13356   13353   13352   13355   13357
   13353   13352   13355   13358   13354   13352   13355   13356
   13354   13352   13355   13357   13354   13352   13355   13358
   13355   13358   13361   13362   13355   13358   13361   13363
   13355   13358   13361   13364   13356   13355   13358   13359
   13356   13355   13358   13360   13356   13355   13358   13361
   13357   13355   13358   13359   13357   13355   13358   13360
   13357   13355   13358   13361   13358   13361   13364   13365
   13358   13361   13364   13366   13358   13361   13364   13367
   13359   13358   13361   13362   13359   13358   13361   13363
   13359   13358   13361   13364   13360   13358   13361   13362
   13360   13358   13361   13363   13360   13358   13361   13364
   13362   13361   13364   13365   13362   13361   13364   13366
   13362   13361   13364   13367   13363   13361   13364   13365
   13363   13361   13364   13366   13363   13361   13364   13367
   13368   13381   13384   13385   13368   13381   13384   13386
   13368   13381   13384   13391   13369   13368   13373   13374
   13369   13368   13373   13375   13369   13368   13373   13376
   13369   13368   13377   13378   13369   13368   13377   13379
   13369   13368   13377   13380   13369   13368   13381   13382
   13369   13368   13381   13383   13369   13368   13381   13384
   13373   13368   13369   13370   13373   13368   13369   13371
   13373   13368   13369   13372   13373   13368   13377   13378
   13373   13368   13377   13379   13373   13368   13377   13380
   13373   13368   13381   13382   13373   13368   13381   13383
   13373   13368   13381   13384   13377   13368   13369   13370
   13377   13368   13369   13371   13377   13368   13369   13372
   13377   13368   13373   13374   13377   13368   13373   13375
   13377   13368   13373   13376   13377   13368   13381   13382
   13377   13368   13381   13383   13377   13368   13381   13384
   13381   13368   13369   13370   13381   13368   13369   13371
   13381   13368   13369   13372   13381   13368   13373   13374
   13381   13368   13373   13375   13381   13368   13373   13376
   13381   13368   13377   13378   13381   13368   13377   13379
   13381   13368   13377   13380   13381   13384   13391   13387
   13382   13381   13384   13385   13382   13381   13384   13386
   13382   13381   13384   13391   13383   13381   13384   13385
   13383   13381   13384   13386   13383   13381   13384   13391
   13385   13384   13391   13387   13386   13384   13391   13387
   13387   13390   13392   13393   13387   13390   13392   13394
   13387   13390   13392   13395   13388   13387   13391   13384
   13388   13387   13390   13392   13389   13387   13391   13384
   13389   13387   13390   13392   13390   13387   13391   13384
   13390   13392   13395   13396   13390   13392   13395   13403
   13390   13392   13395   13397   13391   13387   13390   13392
   13392   13395   13403   13404   13392   13395   13403   13405
   13392   13395   13403   13406   13392   13395   13397   13398
   13393   13392   13395   13396   13393   13392   13395   13403
   13393   13392   13395   13397   13394   13392   13395   13396
   13394   13392   13395   13403   13394   13392   13395   13397
   13395   13403   13406   13407   13395   13397   13398   13400
   13395   13397   13398   13399   13396   13395   13403   13404
   13396   13395   13403   13405   13396   13395   13403   13406
   13396   13395   13397   13398   13397   13398   13400   13401
   13397   13398   13400   13402   13397   13398   13400   13412
   13397   13395   13403   13404   13397   13395   13403   13405
   13397   13395   13403   13406   13398   13400   13412   13413
   13398   13400   13412   13414   13398   13400   13412   13415
   13399   13398   13400   13401   13399   13398   13400   13402
   13399   13398   13400   13412   13400   13412   13415   13416
   13400   13412   13415   13417   13400   13412   13415   13418
   13401   13400   13412   13413   13401   13400   13412   13414
   13401   13400   13412   13415   13402   13400   13412   13413
   13402   13400   13412   13414   13402   13400   13412   13415
   13403   13395   13397   13398   13403   13406   13407   13409
   13403   13406   13407   13408   13404   13403   13406   13407
   13405   13403   13406   13407   13406   13407   13409   13410
   13406   13407   13409   13411   13406   13407   13409   13449
   13407   13409   13449   13450   13407   13409   13449   13451
   13407   13409   13449   13452   13408   13407   13409   13410
   13408   13407   13409   13411   13408   13407   13409   13449
   13409   13449   13452   13453   13409   13449   13452   13454
   13409   13449   13452   13455   13410   13409   13449   13450
   13410   13409   13449   13451   13410   13409   13449   13452
   13411   13409   13449   13450   13411   13409   13449   13451
   13411   13409   13449   13452   13412   13415   13418   13419
   13412   13415   13418   13420   13412   13415   13418   13421
   13413   13412   13415   13416   13413   13412   13415   13417
   13413   13412   13415   13418   13414   13412   13415   13416
   13414   13412   13415   13417   13414   13412   13415   13418
   13415   13418   13421   13422   13415   13418   13421   13423
   13415   13418   13421   13424   13416   13415   13418   13419
   13416   13415   13418   13420   13416   13415   13418   13421
   13417   13415   13418   13419   13417   13415   13418   13420
   13417   13415   13418   13421   13418   13421   13424   13425
   13418   13421   13424   13426   13418   13421   13424   13427
   13419   13418   13421   13422   13419   13418   13421   13423
   13419   13418   13421   13424   13420   13418   13421   13422
   13420   13418   13421   13423   13420   13418   13421   13424
   13421   13424   13427   13428   13421   13424   13427   13429
   13421   13424   13427   13430   13422   13421   13424   13425
   13422   13421   13424   13426   13422   13421   13424   13427
   13423   13421   13424   13425   13423   13421   13424   13426
   13423   13421   13424   13427   13424   13427   13430   13431
   13424   13427   13430   13432   13424   13427   13430   13433
   13425   13424   13427   13428   13425   13424   13427   13429
   13425   13424   13427   13430   13426   13424   13427   13428
   13426   13424   13427   13429   13426   13424   13427   13430
   13427   13430   13433   13434   13427   13430   13433   13435
   13427   13430   13433   13436   13428   13427   13430   13431
   13428   13427   13430   13432   13428   13427   13430   13433
   13429   13427   13430   13431   13429   13427   13430   13432
   13429   13427   13430   13433   13430   13433   13436   13437
   13430   13433   13436   13438   13430   13433   13436   13439
   13431   13430   13433   13434   13431   13430   13433   13435
   13431   13430   13433   13436   13432   13430   13433   13434
   13432   13430   13433   13435   13432   13430   13433   13436
   13433   13436   13439   13440   13433   13436   13439   13441
   13433   13436   13439   13442   13434   13433   13436   13437
   13434   13433   13436   13438   13434   13433   13436   13439
   13435   13433   13436   13437   13435   13433   13436   13438
   13435   13433   13436   13439   13436   13439   13442   13443
   13436   13439   13442   13444   13436   13439   13442   13445
   13437   13436   13439   13440   13437   13436   13439   13441
   13437   13436   13439   13442   13438   13436   13439   13440
   13438   13436   13439   13441   13438   13436   13439   13442
   13439   13442   13445   13446   13439   13442   13445   13447
   13439   13442   13445   13448   13440   13439   13442   13443
   13440   13439   13442   13444   13440   13439   13442   13445
   13441   13439   13442   13443   13441   13439   13442   13444
   13441   13439   13442   13445   13443   13442   13445   13446
   13443   13442   13445   13447   13443   13442   13445   13448
   13444   13442   13445   13446   13444   13442   13445   13447
   13444   13442   13445   13448   13449   13452   13455   13456
   13449   13452   13455   13457   13449   13452   13455   13458
   13450   13449   13452   13453   13450   13449   13452   13454
   13450   13449   13452   13455   13451   13449   13452   13453
   13451   13449   13452   13454   13451   13449   13452   13455
   13452   13455   13458   13459   13452   13455   13458   13460
   13452   13455   13458   13461   13453   13452   13455   13456
   13453   13452   13455   13457   13453   13452   13455   13458
   13454   13452   13455   13456   13454   13452   13455   13457
   13454   13452   13455   13458   13455   13458   13461   13462
   13455   13458   13461   13463   13455   13458   13461   13464
   13456   13455   13458   13459   13456   13455   13458   13460
   13456   13455   13458   13461   13457   13455   13458   13459
   13457   13455   13458   13460   13457   13455   13458   13461
   13458   13461   13464   13465   13458   13461   13464   13466
   13458   13461   13464   13467   13459   13458   13461   13462
   13459   13458   13461   13463   13459   13458   13461   13464
   13460   13458   13461   13462   13460   13458   13461   13463
   13460   13458   13461   13464   13461   13464   13467   13468
   13461   13464   13467   13469   13461   13464   13467   13470
   13462   13461   13464   13465   13462   13461   13464   13466
   13462   13461   13464   13467   13463   13461   13464   13465
   13463   13461   13464   13466   13463   13461   13464   13467
   13464   13467   13470   13471   13464   13467   13470   13472
   13464   13467   13470   13473   13465   13464   13467   13468
   13465   13464   13467   13469   13465   13464   13467   13470
   13466   13464   13467   13468   13466   13464   13467   13469
   13466   13464   13467   13470   13467   13470   13473   13474
   13467   13470   13473   13475   13467   13470   13473   13476
   13468   13467   13470   13471   13468   13467   13470   13472
   13468   13467   13470   13473   13469   13467   13470   13471
   13469   13467   13470   13472   13469   13467   13470   13473
   13470   13473   13476   13477   13470   13473   13476   13478
   13470   13473   13476   13479   13471   13470   13473   13474
   13471   13470   13473   13475   13471   13470   13473   13476
   13472   13470   13473   13474   13472   13470   13473   13475
   13472   13470   13473   13476   13473   13476   13479   13480
   13473   13476   13479   13481   13473   13476   13479   13482
   13474   13473   13476   13477   13474   13473   13476   13478
   13474   13473   13476   13479   13475   13473   13476   13477
   13475   13473   13476   13478   13475   13473   13476   13479
   13476   13479   13482   13483   13476   13479   13482   13484
   13476   13479   13482   13485   13477   13476   13479   13480
   13477   13476   13479   13481   13477   13476   13479   13482
   13478   13476   13479   13480   13478   13476   13479   13481
   13478   13476   13479   13482   13480   13479   13482   13483
   13480   13479   13482   13484   13480   13479   13482   13485
   13481   13479   13482   13483   13481   13479   13482   13484
   13481   13479   13482   13485   13486   13499   13502   13503
   13486   13499   13502   13504   13486   13499   13502   13509
   13487   13486   13491   13492   13487   13486   13491   13493
   13487   13486   13491   13494   13487   13486   13495   13496
   13487   13486   13495   13497   13487   13486   13495   13498
   13487   13486   13499   13500   13487   13486   13499   13501
   13487   13486   13499   13502   13491   13486   13487   13488
   13491   13486   13487   13489   13491   13486   13487   13490
   13491   13486   13495   13496   13491   13486   13495   13497
   13491   13486   13495   13498   13491   13486   13499   13500
   13491   13486   13499   13501   13491   13486   13499   13502
   13495   13486   13487   13488   13495   13486   13487   13489
   13495   13486   13487   13490   13495   13486   13491   13492
   13495   13486   13491   13493   13495   13486   13491   13494
   13495   13486   13499   13500   13495   13486   13499   13501
   13495   13486   13499   13502   13499   13486   13487   13488
   13499   13486   13487   13489   13499   13486   13487   13490
   13499   13486   13491   13492   13499   13486   13491   13493
   13499   13486   13491   13494   13499   13486   13495   13496
   13499   13486   13495   13497   13499   13486   13495   13498
   13499   13502   13509   13505   13500   13499   13502   13503
   13500   13499   13502   13504   13500   13499   13502   13509
   13501   13499   13502   13503   13501   13499   13502   13504
   13501   13499   13502   13509   13503   13502   13509   13505
   13504   13502   13509   13505   13505   13508   13510   13511
   13505   13508   13510   13512   13505   13508   13510   13513
   13506   13505   13509   13502   13506   13505   13508   13510
   13507   13505   13509   13502   13507   13505   13508   13510
   13508   13505   13509   13502   13508   13510   13513   13514
   13508   13510   13513   13521   13508   13510   13513   13515
   13509   13505   13508   13510   13510   13513   13521   13522
   13510   13513   13521   13523   13510   13513   13521   13524
   13510   13513   13515   13516   13511   13510   13513   13514
   13511   13510   13513   13521   13511   13510   13513   13515
   13512   13510   13513   13514   13512   13510   13513   13521
   13512   13510   13513   13515   13513   13521   13524   13525
   13513   13515   13516   13518   13513   13515   13516   13517
   13514   13513   13521   13522   13514   13513   13521   13523
   13514   13513   13521   13524   13514   13513   13515   13516
   13515   13516   13518   13519   13515   13516   13518   13520
   13515   13516   13518   13530   13515   13513   13521   13522
   13515   13513   13521   13523   13515   13513   13521   13524
   13516   13518   13530   13531   13516   13518   13530   13532
   13516   13518   13530   13533   13517   13516   13518   13519
   13517   13516   13518   13520   13517   13516   13518   13530
   13518   13530   13533   13534   13518   13530   13533   13535
   13518   13530   13533   13536   13519   13518   13530   13531
   13519   13518   13530   13532   13519   13518   13530   13533
   13520   13518   13530   13531   13520   13518   13530   13532
   13520   13518   13530   13533   13521   13513   13515   13516
   13521   13524   13525   13527   13521   13524   13525   13526
   13522   13521   13524   13525   13523   13521   13524   13525
   13524   13525   13527   13528   13524   13525   13527   13529
   13524   13525   13527   13567   13525   13527   13567   13568
   13525   13527   13567   13569   13525   13527   13567   13570
   13526   13525   13527   13528   13526   13525   13527   13529
   13526   13525   13527   13567   13527   13567   13570   13571
   13527   13567   13570   13572   13527   13567   13570   13573
   13528   13527   13567   13568   13528   13527   13567   13569
   13528   13527   13567   13570   13529   13527   13567   13568
   13529   13527   13567   13569   13529   13527   13567   13570
   13530   13533   13536   13537   13530   13533   13536   13538
   13530   13533   13536   13539   13531   13530   13533   13534
   13531   13530   13533   13535   13531   13530   13533   13536
   13532   13530   13533   13534   13532   13530   13533   13535
   13532   13530   13533   13536   13533   13536   13539   13540
   13533   13536   13539   13541   13533   13536   13539   13542
   13534   13533   13536   13537   13534   13533   13536   13538
   13534   13533   13536   13539   13535   13533   13536   13537
   13535   13533   13536   13538   13535   13533   13536   13539
   13536   13539   13542   13543   13536   13539   13542   13544
   13536   13539   13542   13545   13537   13536   13539   13540
   13537   13536   13539   13541   13537   13536   13539   13542
   13538   13536   13539   13540   13538   13536   13539   13541
   13538   13536   13539   13542   13539   13542   13545   13546
   13539   13542   13545   13547   13539   13542   13545   13548
   13540   13539   13542   13543   13540   13539   13542   13544
   13540   13539   13542   13545   13541   13539   13542   13543
   13541   13539   13542   13544   13541   13539   13542   13545
   13542   13545   13548   13549   13542   13545   13548   13550
   13542   13545   13548   13551   13543   13542   13545   13546
   13543   13542   13545   13547   13543   13542   13545   13548
   13544   13542   13545   13546   13544   13542   13545   13547
   13544   13542   13545   13548   13545   13548   13551   13552
   13545   13548   13551   13553   13545   13548   13551   13554
   13546   13545   13548   13549   13546   13545   13548   13550
   13546   13545   13548   13551   13547   13545   13548   13549
   13547   13545   13548   13550   13547   13545   13548   13551
   13548   13551   13554   13555   13548   13551   13554   13556
   13548   13551   13554   13557   13549   13548   13551   13552
   13549   13548   13551   13553   13549   13548   13551   13554
   13550   13548   13551   13552   13550   13548   13551   13553
   13550   13548   13551   13554   13551   13554   13557   13558
   13551   13554   13557   13559   13551   13554   13557   13560
   13552   13551   13554   13555   13552   13551   13554   13556
   13552   13551   13554   13557   13553   13551   13554   13555
   13553   13551   13554   13556   13553   13551   13554   13557
   13554   13557   13560   13561   13554   13557   13560   13562
   13554   13557   13560   13563   13555   13554   13557   13558
   13555   13554   13557   13559   13555   13554   13557   13560
   13556   13554   13557   13558   13556   13554   13557   13559
   13556   13554   13557   13560   13557   13560   13563   13564
   13557   13560   13563   13565   13557   13560   13563   13566
   13558   13557   13560   13561   13558   13557   13560   13562
   13558   13557   13560   13563   13559   13557   13560   13561
   13559   13557   13560   13562   13559   13557   13560   13563
   13561   13560   13563   13564   13561   13560   13563   13565
   13561   13560   13563   13566   13562   13560   13563   13564
   13562   13560   13563   13565   13562   13560   13563   13566
   13567   13570   13573   13574   13567   13570   13573   13575
   13567   13570   13573   13576   13568   13567   13570   13571
   13568   13567   13570   13572   13568   13567   13570   13573
   13569   13567   13570   13571   13569   13567   13570   13572
   13569   13567   13570   13573   13570   13573   13576   13577
   13570   13573   13576   13578   13570   13573   13576   13579
   13571   13570   13573   13574   13571   13570   13573   13575
   13571   13570   13573   13576   13572   13570   13573   13574
   13572   13570   13573   13575   13572   13570   13573   13576
   13573   13576   13579   13580   13573   13576   13579   13581
   13573   13576   13579   13582   13574   13573   13576   13577
   13574   13573   13576   13578   13574   13573   13576   13579
   13575   13573   13576   13577   13575   13573   13576   13578
   13575   13573   13576   13579   13576   13579   13582   13583
   13576   13579   13582   13584   13576   13579   13582   13585
   13577   13576   13579   13580   13577   13576   13579   13581
   13577   13576   13579   13582   13578   13576   13579   13580
   13578   13576   13579   13581   13578   13576   13579   13582
   13579   13582   13585   13586   13579   13582   13585   13587
   13579   13582   13585   13588   13580   13579   13582   13583
   13580   13579   13582   13584   13580   13579   13582   13585
   13581   13579   13582   13583   13581   13579   13582   13584
   13581   13579   13582   13585   13582   13585   13588   13589
   13582   13585   13588   13590   13582   13585   13588   13591
   13583   13582   13585   13586   13583   13582   13585   13587
   13583   13582   13585   13588   13584   13582   13585   13586
   13584   13582   13585   13587   13584   13582   13585   13588
   13585   13588   13591   13592   13585   13588   13591   13593
   13585   13588   13591   13594   13586   13585   13588   13589
   13586   13585   13588   13590   13586   13585   13588   13591
   13587   13585   13588   13589   13587   13585   13588   13590
   13587   13585   13588   13591   13588   13591   13594   13595
   13588   13591   13594   13596   13588   13591   13594   13597
   13589   13588   13591   13592   13589   13588   13591   13593
   13589   13588   13591   13594   13590   13588   13591   13592
   13590   13588   13591   13593   13590   13588   13591   13594
   13591   13594   13597   13598   13591   13594   13597   13599
   13591   13594   13597   13600   13592   13591   13594   13595
   13592   13591   13594   13596   13592   13591   13594   13597
   13593   13591   13594   13595   13593   13591   13594   13596
   13593   13591   13594   13597   13594   13597   13600   13601
   13594   13597   13600   13602   13594   13597   13600   13603
   13595   13594   13597   13598   13595   13594   13597   13599
   13595   13594   13597   13600   13596   13594   13597   13598
   13596   13594   13597   13599   13596   13594   13597   13600
   13598   13597   13600   13601   13598   13597   13600   13602
   13598   13597   13600   13603   13599   13597   13600   13601
   13599   13597   13600   13602   13599   13597   13600   13603
   13604   13617   13620   13621   13604   13617   13620   13622
   13604   13617   13620   13627   13605   13604   13609   13610
   13605   13604   13609   13611   13605   13604   13609   13612
   13605   13604   13613   13614   13605   13604   13613   13615
   13605   13604   13613   13616   13605   13604   13617   13618
   13605   13604   13617   13619   13605   13604   13617   13620
   13609   13604   13605   13606   13609   13604   13605   13607
   13609   13604   13605   13608   13609   13604   13613   13614
   13609   13604   13613   13615   13609   13604   13613   13616
   13609   13604   13617   13618   13609   13604   13617   13619
   13609   13604   13617   13620   13613   13604   13605   13606
   13613   13604   13605   13607   13613   13604   13605   13608
   13613   13604   13609   13610   13613   13604   13609   13611
   13613   13604   13609   13612   13613   13604   13617   13618
   13613   13604   13617   13619   13613   13604   13617   13620
   13617   13604   13605   13606   13617   13604   13605   13607
   13617   13604   13605   13608   13617   13604   13609   13610
   13617   13604   13609   13611   13617   13604   13609   13612
   13617   13604   13613   13614   13617   13604   13613   13615
   13617   13604   13613   13616   13617   13620   13627   13623
   13618   13617   13620   13621   13618   13617   13620   13622
   13618   13617   13620   13627   13619   13617   13620   13621
   13619   13617   13620   13622   13619   13617   13620   13627
   13621   13620   13627   13623   13622   13620   13627   13623
   13623   13626   13628   13629   13623   13626   13628   13630
   13623   13626   13628   13631   13624   13623   13627   13620
   13624   13623   13626   13628   13625   13623   13627   13620
   13625   13623   13626   13628   13626   13623   13627   13620
   13626   13628   13631   13632   13626   13628   13631   13639
   13626   13628   13631   13633   13627   13623   13626   13628
   13628   13631   13639   13640   13628   13631   13639   13641
   13628   13631   13639   13642   13628   13631   13633   13634
   13629   13628   13631   13632   13629   13628   13631   13639
   13629   13628   13631   13633   13630   13628   13631   13632
   13630   13628   13631   13639   13630   13628   13631   13633
   13631   13639   13642   13643   13631   13633   13634   13636
   13631   13633   13634   13635   13632   13631   13639   13640
   13632   13631   13639   13641   13632   13631   13639   13642
   13632   13631   13633   13634   13633   13634   13636   13637
   13633   13634   13636   13638   13633   13634   13636   13648
   13633   13631   13639   13640   13633   13631   13639   13641
   13633   13631   13639   13642   13634   13636   13648   13649
   13634   13636   13648   13650   13634   13636   13648   13651
   13635   13634   13636   13637   13635   13634   13636   13638
   13635   13634   13636   13648   13636   13648   13651   13652
   13636   13648   13651   13653   13636   13648   13651   13654
   13637   13636   13648   13649   13637   13636   13648   13650
   13637   13636   13648   13651   13638   13636   13648   13649
   13638   13636   13648   13650   13638   13636   13648   13651
   13639   13631   13633   13634   13639   13642   13643   13645
   13639   13642   13643   13644   13640   13639   13642   13643
   13641   13639   13642   13643   13642   13643   13645   13646
   13642   13643   13645   13647   13642   13643   13645   13685
   13643   13645   13685   13686   13643   13645   13685   13687
   13643   13645   13685   13688   13644   13643   13645   13646
   13644   13643   13645   13647   13644   13643   13645   13685
   13645   13685   13688   13689   13645   13685   13688   13690
   13645   13685   13688   13691   13646   13645   13685   13686
   13646   13645   13685   13687   13646   13645   13685   13688
   13647   13645   13685   13686   13647   13645   13685   13687
   13647   13645   13685   13688   13648   13651   13654   13655
   13648   13651   13654   13656   13648   13651   13654   13657
   13649   13648   13651   13652   13649   13648   13651   13653
   13649   13648   13651   13654   13650   13648   13651   13652
   13650   13648   13651   13653   13650   13648   13651   13654
   13651   13654   13657   13658   13651   13654   13657   13659
   13651   13654   13657   13660   13652   13651   13654   13655
   13652   13651   13654   13656   13652   13651   13654   13657
   13653   13651   13654   13655   13653   13651   13654   13656
   13653   13651   13654   13657   13654   13657   13660   13661
   13654   13657   13660   13662   13654   13657   13660   13663
   13655   13654   13657   13658   13655   13654   13657   13659
   13655   13654   13657   13660   13656   13654   13657   13658
   13656   13654   13657   13659   13656   13654   13657   13660
   13657   13660   13663   13664   13657   13660   13663   13665
   13657   13660   13663   13666   13658   13657   13660   13661
   13658   13657   13660   13662   13658   13657   13660   13663
   13659   13657   13660   13661   13659   13657   13660   13662
   13659   13657   13660   13663   13660   13663   13666   13667
   13660   13663   13666   13668   13660   13663   13666   13669
   13661   13660   13663   13664   13661   13660   13663   13665
   13661   13660   13663   13666   13662   13660   13663   13664
   13662   13660   13663   13665   13662   13660   13663   13666
   13663   13666   13669   13670   13663   13666   13669   13671
   13663   13666   13669   13672   13664   13663   13666   13667
   13664   13663   13666   13668   13664   13663   13666   13669
   13665   13663   13666   13667   13665   13663   13666   13668
   13665   13663   13666   13669   13666   13669   13672   13673
   13666   13669   13672   13674   13666   13669   13672   13675
   13667   13666   13669   13670   13667   13666   13669   13671
   13667   13666   13669   13672   13668   13666   13669   13670
   13668   13666   13669   13671   13668   13666   13669   13672
   13669   13672   13675   13676   13669   13672   13675   13677
   13669   13672   13675   13678   13670   13669   13672   13673
   13670   13669   13672   13674   13670   13669   13672   13675
   13671   13669   13672   13673   13671   13669   13672   13674
   13671   13669   13672   13675   13672   13675   13678   13679
   13672   13675   13678   13680   13672   13675   13678   13681
   13673   13672   13675   13676   13673   13672   13675   13677
   13673   13672   13675   13678   13674   13672   13675   13676
   13674   13672   13675   13677   13674   13672   13675   13678
   13675   13678   13681   13682   13675   13678   13681   13683
   13675   13678   13681   13684   13676   13675   13678   13679
   13676   13675   13678   13680   13676   13675   13678   13681
   13677   13675   13678   13679   13677   13675   13678   13680
   13677   13675   13678   13681   13679   13678   13681   13682
   13679   13678   13681   13683   13679   13678   13681   13684
   13680   13678   13681   13682   13680   13678   13681   13683
   13680   13678   13681   13684   13685   13688   13691   13692
   13685   13688   13691   13693   13685   13688   13691   13694
   13686   13685   13688   13689   13686   13685   13688   13690
   13686   13685   13688   13691   13687   13685   13688   13689
   13687   13685   13688   13690   13687   13685   13688   13691
   13688   13691   13694   13695   13688   13691   13694   13696
   13688   13691   13694   13697   13689   13688   13691   13692
   13689   13688   13691   13693   13689   13688   13691   13694
   13690   13688   13691   13692   13690   13688   13691   13693
   13690   13688   13691   13694   13691   13694   13697   13698
   13691   13694   13697   13699   13691   13694   13697   13700
   13692   13691   13694   13695   13692   13691   13694   13696
   13692   13691   13694   13697   13693   13691   13694   13695
   13693   13691   13694   13696   13693   13691   13694   13697
   13694   13697   13700   13701   13694   13697   13700   13702
   13694   13697   13700   13703   13695   13694   13697   13698
   13695   13694   13697   13699   13695   13694   13697   13700
   13696   13694   13697   13698   13696   13694   13697   13699
   13696   13694   13697   13700   13697   13700   13703   13704
   13697   13700   13703   13705   13697   13700   13703   13706
   13698   13697   13700   13701   13698   13697   13700   13702
   13698   13697   13700   13703   13699   13697   13700   13701
   13699   13697   13700   13702   13699   13697   13700   13703
   13700   13703   13706   13707   13700   13703   13706   13708
   13700   13703   13706   13709   13701   13700   13703   13704
   13701   13700   13703   13705   13701   13700   13703   13706
   13702   13700   13703   13704   13702   13700   13703   13705
   13702   13700   13703   13706   13703   13706   13709   13710
   13703   13706   13709   13711   13703   13706   13709   13712
   13704   13703   13706   13707   13704   13703   13706   13708
   13704   13703   13706   13709   13705   13703   13706   13707
   13705   13703   13706   13708   13705   13703   13706   13709
   13706   13709   13712   13713   13706   13709   13712   13714
   13706   13709   13712   13715   13707   13706   13709   13710
   13707   13706   13709   13711   13707   13706   13709   13712
   13708   13706   13709   13710   13708   13706   13709   13711
   13708   13706   13709   13712   13709   13712   13715   13716
   13709   13712   13715   13717   13709   13712   13715   13718
   13710   13709   13712   13713   13710   13709   13712   13714
   13710   13709   13712   13715   13711   13709   13712   13713
   13711   13709   13712   13714   13711   13709   13712   13715
   13712   13715   13718   13719   13712   13715   13718   13720
   13712   13715   13718   13721   13713   13712   13715   13716
   13713   13712   13715   13717   13713   13712   13715   13718
   13714   13712   13715   13716   13714   13712   13715   13717
   13714   13712   13715   13718   13716   13715   13718   13719
   13716   13715   13718   13720   13716   13715   13718   13721
   13717   13715   13718   13719   13717   13715   13718   13720
   13717   13715   13718   13721   13722   13735   13738   13739
   13722   13735   13738   13740   13722   13735   13738   13745
   13723   13722   13727   13728   13723   13722   13727   13729
   13723   13722   13727   13730   13723   13722   13731   13732
   13723   13722   13731   13733   13723   13722   13731   13734
   13723   13722   13735   13736   13723   13722   13735   13737
   13723   13722   13735   13738   13727   13722   13723   13724
   13727   13722   13723   13725   13727   13722   13723   13726
   13727   13722   13731   13732   13727   13722   13731   13733
   13727   13722   13731   13734   13727   13722   13735   13736
   13727   13722   13735   13737   13727   13722   13735   13738
   13731   13722   13723   13724   13731   13722   13723   13725
   13731   13722   13723   13726   13731   13722   13727   13728
   13731   13722   13727   13729   13731   13722   13727   13730
   13731   13722   13735   13736   13731   13722   13735   13737
   13731   13722   13735   13738   13735   13722   13723   13724
   13735   13722   13723   13725   13735   13722   13723   13726
   13735   13722   13727   13728   13735   13722   13727   13729
   13735   13722   13727   13730   13735   13722   13731   13732
   13735   13722   13731   13733   13735   13722   13731   13734
   13735   13738   13745   13741   13736   13735   13738   13739
   13736   13735   13738   13740   13736   13735   13738   13745
   13737   13735   13738   13739   13737   13735   13738   13740
   13737   13735   13738   13745   13739   13738   13745   13741
   13740   13738   13745   13741   13741   13744   13746   13747
   13741   13744   13746   13748   13741   13744   13746   13749
   13742   13741   13745   13738   13742   13741   13744   13746
   13743   13741   13745   13738   13743   13741   13744   13746
   13744   13741   13745   13738   13744   13746   13749   13750
   13744   13746   13749   13757   13744   13746   13749   13751
   13745   13741   13744   13746   13746   13749   13757   13758
   13746   13749   13757   13759   13746   13749   13757   13760
   13746   13749   13751   13752   13747   13746   13749   13750
   13747   13746   13749   13757   13747   13746   13749   13751
   13748   13746   13749   13750   13748   13746   13749   13757
   13748   13746   13749   13751   13749   13757   13760   13761
   13749   13751   13752   13754   13749   13751   13752   13753
   13750   13749   13757   13758   13750   13749   13757   13759
   13750   13749   13757   13760   13750   13749   13751   13752
   13751   13752   13754   13755   13751   13752   13754   13756
   13751   13752   13754   13766   13751   13749   13757   13758
   13751   13749   13757   13759   13751   13749   13757   13760
   13752   13754   13766   13767   13752   13754   13766   13768
   13752   13754   13766   13769   13753   13752   13754   13755
   13753   13752   13754   13756   13753   13752   13754   13766
   13754   13766   13769   13770   13754   13766   13769   13771
   13754   13766   13769   13772   13755   13754   13766   13767
   13755   13754   13766   13768   13755   13754   13766   13769
   13756   13754   13766   13767   13756   13754   13766   13768
   13756   13754   13766   13769   13757   13749   13751   13752
   13757   13760   13761   13763   13757   13760   13761   13762
   13758   13757   13760   13761   13759   13757   13760   13761
   13760   13761   13763   13764   13760   13761   13763   13765
   13760   13761   13763   13803   13761   13763   13803   13804
   13761   13763   13803   13805   13761   13763   13803   13806
   13762   13761   13763   13764   13762   13761   13763   13765
   13762   13761   13763   13803   13763   13803   13806   13807
   13763   13803   13806   13808   13763   13803   13806   13809
   13764   13763   13803   13804   13764   13763   13803   13805
   13764   13763   13803   13806   13765   13763   13803   13804
   13765   13763   13803   13805   13765   13763   13803   13806
   13766   13769   13772   13773   13766   13769   13772   13774
   13766   13769   13772   13775   13767   13766   13769   13770
   13767   13766   13769   13771   13767   13766   13769   13772
   13768   13766   13769   13770   13768   13766   13769   13771
   13768   13766   13769   13772   13769   13772   13775   13776
   13769   13772   13775   13777   13769   13772   13775   13778
   13770   13769   13772   13773   13770   13769   13772   13774
   13770   13769   13772   13775   13771   13769   13772   13773
   13771   13769   13772   13774   13771   13769   13772   13775
   13772   13775   13778   13779   13772   13775   13778   13780
   13772   13775   13778   13781   13773   13772   13775   13776
   13773   13772   13775   13777   13773   13772   13775   13778
   13774   13772   13775   13776   13774   13772   13775   13777
   13774   13772   13775   13778   13775   13778   13781   13782
   13775   13778   13781   13783   13775   13778   13781   13784
   13776   13775   13778   13779   13776   13775   13778   13780
   13776   13775   13778   13781   13777   13775   13778   13779
   13777   13775   13778   13780   13777   13775   13778   13781
   13778   13781   13784   13785   13778   13781   13784   13786
   13778   13781   13784   13787   13779   13778   13781   13782
   13779   13778   13781   13783   13779   13778   13781   13784
   13780   13778   13781   13782   13780   13778   13781   13783
   13780   13778   13781   13784   13781   13784   13787   13788
   13781   13784   13787   13789   13781   13784   13787   13790
   13782   13781   13784   13785   13782   13781   13784   13786
   13782   13781   13784   13787   13783   13781   13784   13785
   13783   13781   13784   13786   13783   13781   13784   13787
   13784   13787   13790   13791   13784   13787   13790   13792
   13784   13787   13790   13793   13785   13784   13787   13788
   13785   13784   13787   13789   13785   13784   13787   13790
   13786   13784   13787   13788   13786   13784   13787   13789
   13786   13784   13787   13790   13787   13790   13793   13794
   13787   13790   13793   13795   13787   13790   13793   13796
   13788   13787   13790   13791   13788   13787   13790   13792
   13788   13787   13790   13793   13789   13787   13790   13791
   13789   13787   13790   13792   13789   13787   13790   13793
   13790   13793   13796   13797   13790   13793   13796   13798
   13790   13793   13796   13799   13791   13790   13793   13794
   13791   13790   13793   13795   13791   13790   13793   13796
   13792   13790   13793   13794   13792   13790   13793   13795
   13792   13790   13793   13796   13793   13796   13799   13800
   13793   13796   13799   13801   13793   13796   13799   13802
   13794   13793   13796   13797   13794   13793   13796   13798
   13794   13793   13796   13799   13795   13793   13796   13797
   13795   13793   13796   13798   13795   13793   13796   13799
   13797   13796   13799   13800   13797   13796   13799   13801
   13797   13796   13799   13802   13798   13796   13799   13800
   13798   13796   13799   13801   13798   13796   13799   13802
   13803   13806   13809   13810   13803   13806   13809   13811
   13803   13806   13809   13812   13804   13803   13806   13807
   13804   13803   13806   13808   13804   13803   13806   13809
   13805   13803   13806   13807   13805   13803   13806   13808
   13805   13803   13806   13809   13806   13809   13812   13813
   13806   13809   13812   13814   13806   13809   13812   13815
   13807   13806   13809   13810   13807   13806   13809   13811
   13807   13806   13809   13812   13808   13806   13809   13810
   13808   13806   13809   13811   13808   13806   13809   13812
   13809   13812   13815   13816   13809   13812   13815   13817
   13809   13812   13815   13818   13810   13809   13812   13813
   13810   13809   13812   13814   13810   13809   13812   13815
   13811   13809   13812   13813   13811   13809   13812   13814
   13811   13809   13812   13815   13812   13815   13818   13819
   13812   13815   13818   13820   13812   13815   13818   13821
   13813   13812   13815   13816   13813   13812   13815   13817
   13813   13812   13815   13818   13814   13812   13815   13816
   13814   13812   13815   13817   13814   13812   13815   13818
   13815   13818   13821   13822   13815   13818   13821   13823
   13815   13818   13821   13824   13816   13815   13818   13819
   13816   13815   13818   13820   13816   13815   13818   13821
   13817   13815   13818   13819   13817   13815   13818   13820
   13817   13815   13818   13821   13818   13821   13824   13825
   13818   13821   13824   13826   13818   13821   13824   13827
   13819   13818   13821   13822   13819   13818   13821   13823
   13819   13818   13821   13824   13820   13818   13821   13822
   13820   13818   13821   13823   13820   13818   13821   13824
   13821   13824   13827   13828   13821   13824   13827   13829
   13821   13824   13827   13830   13822   13821   13824   13825
   13822   13821   13824   13826   13822   13821   13824   13827
   13823   13821   13824   13825   13823   13821   13824   13826
   13823   13821   13824   13827   13824   13827   13830   13831
   13824   13827   13830   13832   13824   13827   13830   13833
   13825   13824   13827   13828   13825   13824   13827   13829
   13825   13824   13827   13830   13826   13824   13827   13828
   13826   13824   13827   13829   13826   13824   13827   13830
   13827   13830   13833   13834   13827   13830   13833   13835
   13827   13830   13833   13836   13828   13827   13830   13831
   13828   13827   13830   13832   13828   13827   13830   13833
   13829   13827   13830   13831   13829   13827   13830   13832
   13829   13827   13830   13833   13830   13833   13836   13837
   13830   13833   13836   13838   13830   13833   13836   13839
   13831   13830   13833   13834   13831   13830   13833   13835
   13831   13830   13833   13836   13832   13830   13833   13834
   13832   13830   13833   13835   13832   13830   13833   13836
   13834   13833   13836   13837   13834   13833   13836   13838
   13834   13833   13836   13839   13835   13833   13836   13837
   13835   13833   13836   13838   13835   13833   13836   13839
   13840   13853   13856   13857   13840   13853   13856   13858
   13840   13853   13856   13863   13841   13840   13845   13846
   13841   13840   13845   13847   13841   13840   13845   13848
   13841   13840   13849   13850   13841   13840   13849   13851
   13841   13840   13849   13852   13841   13840   13853   13854
   13841   13840   13853   13855   13841   13840   13853   13856
   13845   13840   13841   13842   13845   13840   13841   13843
   13845   13840   13841   13844   13845   13840   13849   13850
   13845   13840   13849   13851   13845   13840   13849   13852
   13845   13840   13853   13854   13845   13840   13853   13855
   13845   13840   13853   13856   13849   13840   13841   13842
   13849   13840   13841   13843   13849   13840   13841   13844
   13849   13840   13845   13846   13849   13840   13845   13847
   13849   13840   13845   13848   13849   13840   13853   13854
   13849   13840   13853   13855   13849   13840   13853   13856
   13853   13840   13841   13842   13853   13840   13841   13843
   13853   13840   13841   13844   13853   13840   13845   13846
   13853   13840   13845   13847   13853   13840   13845   13848
   13853   13840   13849   13850   13853   13840   13849   13851
   13853   13840   13849   13852   13853   13856   13863   13859
   13854   13853   13856   13857   13854   13853   13856   13858
   13854   13853   13856   13863   13855   13853   13856   13857
   13855   13853   13856   13858   13855   13853   13856   13863
   13857   13856   13863   13859   13858   13856   13863   13859
   13859   13862   13864   13865   13859   13862   13864   13866
   13859   13862   13864   13867   13860   13859   13863   13856
   13860   13859   13862   13864   13861   13859   13863   13856
   13861   13859   13862   13864   13862   13859   13863   13856
   13862   13864   13867   13868   13862   13864   13867   13875
   13862   13864   13867   13869   13863   13859   13862   13864
   13864   13867   13875   13876   13864   13867   13875   13877
   13864   13867   13875   13878   13864   13867   13869   13870
   13865   13864   13867   13868   13865   13864   13867   13875
   13865   13864   13867   13869   13866   13864   13867   13868
   13866   13864   13867   13875   13866   13864   13867   13869
   13867   13875   13878   13879   13867   13869   13870   13872
   13867   13869   13870   13871   13868   13867   13875   13876
   13868   13867   13875   13877   13868   13867   13875   13878
   13868   13867   13869   13870   13869   13870   13872   13873
   13869   13870   13872   13874   13869   13870   13872   13884
   13869   13867   13875   13876   13869   13867   13875   13877
   13869   13867   13875   13878   13870   13872   13884   13885
   13870   13872   13884   13886   13870   13872   13884   13887
   13871   13870   13872   13873   13871   13870   13872   13874
   13871   13870   13872   13884   13872   13884   13887   13888
   13872   13884   13887   13889   13872   13884   13887   13890
   13873   13872   13884   13885   13873   13872   13884   13886
   13873   13872   13884   13887   13874   13872   13884   13885
   13874   13872   13884   13886   13874   13872   13884   13887
   13875   13867   13869   13870   13875   13878   13879   13881
   13875   13878   13879   13880   13876   13875   13878   13879
   13877   13875   13878   13879   13878   13879   13881   13882
   13878   13879   13881   13883   13878   13879   13881   13921
   13879   13881   13921   13922   13879   13881   13921   13923
   13879   13881   13921   13924   13880   13879   13881   13882
   13880   13879   13881   13883   13880   13879   13881   13921
   13881   13921   13924   13925   13881   13921   13924   13926
   13881   13921   13924   13927   13882   13881   13921   13922
   13882   13881   13921   13923   13882   13881   13921   13924
   13883   13881   13921   13922   13883   13881   13921   13923
   13883   13881   13921   13924   13884   13887   13890   13891
   13884   13887   13890   13892   13884   13887   13890   13893
   13885   13884   13887   13888   13885   13884   13887   13889
   13885   13884   13887   13890   13886   13884   13887   13888
   13886   13884   13887   13889   13886   13884   13887   13890
   13887   13890   13893   13894   13887   13890   13893   13895
   13887   13890   13893   13896   13888   13887   13890   13891
   13888   13887   13890   13892   13888   13887   13890   13893
   13889   13887   13890   13891   13889   13887   13890   13892
   13889   13887   13890   13893   13890   13893   13896   13897
   13890   13893   13896   13898   13890   13893   13896   13899
   13891   13890   13893   13894   13891   13890   13893   13895
   13891   13890   13893   13896   13892   13890   13893   13894
   13892   13890   13893   13895   13892   13890   13893   13896
   13893   13896   13899   13900   13893   13896   13899   13901
   13893   13896   13899   13902   13894   13893   13896   13897
   13894   13893   13896   13898   13894   13893   13896   13899
   13895   13893   13896   13897   13895   13893   13896   13898
   13895   13893   13896   13899   13896   13899   13902   13903
   13896   13899   13902   13904   13896   13899   13902   13905
   13897   13896   13899   13900   13897   13896   13899   13901
   13897   13896   13899   13902   13898   13896   13899   13900
   13898   13896   13899   13901   13898   13896   13899   13902
   13899   13902   13905   13906   13899   13902   13905   13907
   13899   13902   13905   13908   13900   13899   13902   13903
   13900   13899   13902   13904   13900   13899   13902   13905
   13901   13899   13902   13903   13901   13899   13902   13904
   13901   13899   13902   13905   13902   13905   13908   13909
   13902   13905   13908   13910   13902   13905   13908   13911
   13903   13902   13905   13906   13903   13902   13905   13907
   13903   13902   13905   13908   13904   13902   13905   13906
   13904   13902   13905   13907   13904   13902   13905   13908
   13905   13908   13911   13912   13905   13908   13911   13913
   13905   13908   13911   13914   13906   13905   13908   13909
   13906   13905   13908   13910   13906   13905   13908   13911
   13907   13905   13908   13909   13907   13905   13908   13910
   13907   13905   13908   13911   13908   13911   13914   13915
   13908   13911   13914   13916   13908   13911   13914   13917
   13909   13908   13911   13912   13909   13908   13911   13913
   13909   13908   13911   13914   13910   13908   13911   13912
   13910   13908   13911   13913   13910   13908   13911   13914
   13911   13914   13917   13918   13911   13914   13917   13919
   13911   13914   13917   13920   13912   13911   13914   13915
   13912   13911   13914   13916   13912   13911   13914   13917
   13913   13911   13914   13915   13913   13911   13914   13916
   13913   13911   13914   13917   13915   13914   13917   13918
   13915   13914   13917   13919   13915   13914   13917   13920
   13916   13914   13917   13918   13916   13914   13917   13919
   13916   13914   13917   13920   13921   13924   13927   13928
   13921   13924   13927   13929   13921   13924   13927   13930
   13922   13921   13924   13925   13922   13921   13924   13926
   13922   13921   13924   13927   13923   13921   13924   13925
   13923   13921   13924   13926   13923   13921   13924   13927
   13924   13927   13930   13931   13924   13927   13930   13932
   13924   13927   13930   13933   13925   13924   13927   13928
   13925   13924   13927   13929   13925   13924   13927   13930
   13926   13924   13927   13928   13926   13924   13927   13929
   13926   13924   13927   13930   13927   13930   13933   13934
   13927   13930   13933   13935   13927   13930   13933   13936
   13928   13927   13930   13931   13928   13927   13930   13932
   13928   13927   13930   13933   13929   13927   13930   13931
   13929   13927   13930   13932   13929   13927   13930   13933
   13930   13933   13936   13937   13930   13933   13936   13938
   13930   13933   13936   13939   13931   13930   13933   13934
   13931   13930   13933   13935   13931   13930   13933   13936
   13932   13930   13933   13934   13932   13930   13933   13935
   13932   13930   13933   13936   13933   13936   13939   13940
   13933   13936   13939   13941   13933   13936   13939   13942
   13934   13933   13936   13937   13934   13933   13936   13938
   13934   13933   13936   13939   13935   13933   13936   13937
   13935   13933   13936   13938   13935   13933   13936   13939
   13936   13939   13942   13943   13936   13939   13942   13944
   13936   13939   13942   13945   13937   13936   13939   13940
   13937   13936   13939   13941   13937   13936   13939   13942
   13938   13936   13939   13940   13938   13936   13939   13941
   13938   13936   13939   13942   13939   13942   13945   13946
   13939   13942   13945   13947   13939   13942   13945   13948
   13940   13939   13942   13943   13940   13939   13942   13944
   13940   13939   13942   13945   13941   13939   13942   13943
   13941   13939   13942   13944   13941   13939   13942   13945
   13942   13945   13948   13949   13942   13945   13948   13950
   13942   13945   13948   13951   13943   13942   13945   13946
   13943   13942   13945   13947   13943   13942   13945   13948
   13944   13942   13945   13946   13944   13942   13945   13947
   13944   13942   13945   13948   13945   13948   13951   13952
   13945   13948   13951   13953   13945   13948   13951   13954
   13946   13945   13948   13949   13946   13945   13948   13950
   13946   13945   13948   13951   13947   13945   13948   13949
   13947   13945   13948   13950   13947   13945   13948   13951
   13948   13951   13954   13955   13948   13951   13954   13956
   13948   13951   13954   13957   13949   13948   13951   13952
   13949   13948   13951   13953   13949   13948   13951   13954
   13950   13948   13951   13952   13950   13948   13951   13953
   13950   13948   13951   13954   13952   13951   13954   13955
   13952   13951   13954   13956   13952   13951   13954   13957
   13953   13951   13954   13955   13953   13951   13954   13956
   13953   13951   13954   13957   13958   13971   13974   13975
   13958   13971   13974   13976   13958   13971   13974   13981
   13959   13958   13963   13964   13959   13958   13963   13965
   13959   13958   13963   13966   13959   13958   13967   13968
   13959   13958   13967   13969   13959   13958   13967   13970
   13959   13958   13971   13972   13959   13958   13971   13973
   13959   13958   13971   13974   13963   13958   13959   13960
   13963   13958   13959   13961   13963   13958   13959   13962
   13963   13958   13967   13968   13963   13958   13967   13969
   13963   13958   13967   13970   13963   13958   13971   13972
   13963   13958   13971   13973   13963   13958   13971   13974
   13967   13958   13959   13960   13967   13958   13959   13961
   13967   13958   13959   13962   13967   13958   13963   13964
   13967   13958   13963   13965   13967   13958   13963   13966
   13967   13958   13971   13972   13967   13958   13971   13973
   13967   13958   13971   13974   13971   13958   13959   13960
   13971   13958   13959   13961   13971   13958   13959   13962
   13971   13958   13963   13964   13971   13958   13963   13965
   13971   13958   13963   13966   13971   13958   13967   13968
   13971   13958   13967   13969   13971   13958   13967   13970
   13971   13974   13981   13977   13972   13971   13974   13975
   13972   13971   13974   13976   13972   13971   13974   13981
   13973   13971   13974   13975   13973   13971   13974   13976
   13973   13971   13974   13981   13975   13974   13981   13977
   13976   13974   13981   13977   13977   13980   13982   13983
   13977   13980   13982   13984   13977   13980   13982   13985
   13978   13977   13981   13974   13978   13977   13980   13982
   13979   13977   13981   13974   13979   13977   13980   13982
   13980   13977   13981   13974   13980   13982   13985   13986
   13980   13982   13985   13993   13980   13982   13985   13987
   13981   13977   13980   13982   13982   13985   13993   13994
   13982   13985   13993   13995   13982   13985   13993   13996
   13982   13985   13987   13988   13983   13982   13985   13986
   13983   13982   13985   13993   13983   13982   13985   13987
   13984   13982   13985   13986   13984   13982   13985   13993
   13984   13982   13985   13987   13985   13993   13996   13997
   13985   13987   13988   13990   13985   13987   13988   13989
   13986   13985   13993   13994   13986   13985   13993   13995
   13986   13985   13993   13996   13986   13985   13987   13988
   13987   13988   13990   13991   13987   13988   13990   13992
   13987   13988   13990   14002   13987   13985   13993   13994
   13987   13985   13993   13995   13987   13985   13993   13996
   13988   13990   14002   14003   13988   13990   14002   14004
   13988   13990   14002   14005   13989   13988   13990   13991
   13989   13988   13990   13992   13989   13988   13990   14002
   13990   14002   14005   14006   13990   14002   14005   14007
   13990   14002   14005   14008   13991   13990   14002   14003
   13991   13990   14002   14004   13991   13990   14002   14005
   13992   13990   14002   14003   13992   13990   14002   14004
   13992   13990   14002   14005   13993   13985   13987   13988
   13993   13996   13997   13999   13993   13996   13997   13998
   13994   13993   13996   13997   13995   13993   13996   13997
   13996   13997   13999   14000   13996   13997   13999   14001
   13996   13997   13999   14039   13997   13999   14039   14040
   13997   13999   14039   14041   13997   13999   14039   14042
   13998   13997   13999   14000   13998   13997   13999   14001
   13998   13997   13999   14039   13999   14039   14042   14043
   13999   14039   14042   14044   13999   14039   14042   14045
   14000   13999   14039   14040   14000   13999   14039   14041
   14000   13999   14039   14042   14001   13999   14039   14040
   14001   13999   14039   14041   14001   13999   14039   14042
   14002   14005   14008   14009   14002   14005   14008   14010
   14002   14005   14008   14011   14003   14002   14005   14006
   14003   14002   14005   14007   14003   14002   14005   14008
   14004   14002   14005   14006   14004   14002   14005   14007
   14004   14002   14005   14008   14005   14008   14011   14012
   14005   14008   14011   14013   14005   14008   14011   14014
   14006   14005   14008   14009   14006   14005   14008   14010
   14006   14005   14008   14011   14007   14005   14008   14009
   14007   14005   14008   14010   14007   14005   14008   14011
   14008   14011   14014   14015   14008   14011   14014   14016
   14008   14011   14014   14017   14009   14008   14011   14012
   14009   14008   14011   14013   14009   14008   14011   14014
   14010   14008   14011   14012   14010   14008   14011   14013
   14010   14008   14011   14014   14011   14014   14017   14018
   14011   14014   14017   14019   14011   14014   14017   14020
   14012   14011   14014   14015   14012   14011   14014   14016
   14012   14011   14014   14017   14013   14011   14014   14015
   14013   14011   14014   14016   14013   14011   14014   14017
   14014   14017   14020   14021   14014   14017   14020   14022
   14014   14017   14020   14023   14015   14014   14017   14018
   14015   14014   14017   14019   14015   14014   14017   14020
   14016   14014   14017   14018   14016   14014   14017   14019
   14016   14014   14017   14020   14017   14020   14023   14024
   14017   14020   14023   14025   14017   14020   14023   14026
   14018   14017   14020   14021   14018   14017   14020   14022
   14018   14017   14020   14023   14019   14017   14020   14021
   14019   14017   14020   14022   14019   14017   14020   14023
   14020   14023   14026   14027   14020   14023   14026   14028
   14020   14023   14026   14029   14021   14020   14023   14024
   14021   14020   14023   14025   14021   14020   14023   14026
   14022   14020   14023   14024   14022   14020   14023   14025
   14022   14020   14023   14026   14023   14026   14029   14030
   14023   14026   14029   14031   14023   14026   14029   14032
   14024   14023   14026   14027   14024   14023   14026   14028
   14024   14023   14026   14029   14025   14023   14026   14027
   14025   14023   14026   14028   14025   14023   14026   14029
   14026   14029   14032   14033   14026   14029   14032   14034
   14026   14029   14032   14035   14027   14026   14029   14030
   14027   14026   14029   14031   14027   14026   14029   14032
   14028   14026   14029   14030   14028   14026   14029   14031
   14028   14026   14029   14032   14029   14032   14035   14036
   14029   14032   14035   14037   14029   14032   14035   14038
   14030   14029   14032   14033   14030   14029   14032   14034
   14030   14029   14032   14035   14031   14029   14032   14033
   14031   14029   14032   14034   14031   14029   14032   14035
   14033   14032   14035   14036   14033   14032   14035   14037
   14033   14032   14035   14038   14034   14032   14035   14036
   14034   14032   14035   14037   14034   14032   14035   14038
   14039   14042   14045   14046   14039   14042   14045   14047
   14039   14042   14045   14048   14040   14039   14042   14043
   14040   14039   14042   14044   14040   14039   14042   14045
   14041   14039   14042   14043   14041   14039   14042   14044
   14041   14039   14042   14045   14042   14045   14048   14049
   14042   14045   14048   14050   14042   14045   14048   14051
   14043   14042   14045   14046   14043   14042   14045   14047
   14043   14042   14045   14048   14044   14042   14045   14046
   14044   14042   14045   14047   14044   14042   14045   14048
   14045   14048   14051   14052   14045   14048   14051   14053
   14045   14048   14051   14054   14046   14045   14048   14049
   14046   14045   14048   14050   14046   14045   14048   14051
   14047   14045   14048   14049   14047   14045   14048   14050
   14047   14045   14048   14051   14048   14051   14054   14055
   14048   14051   14054   14056   14048   14051   14054   14057
   14049   14048   14051   14052   14049   14048   14051   14053
   14049   14048   14051   14054   14050   14048   14051   14052
   14050   14048   14051   14053   14050   14048   14051   14054
   14051   14054   14057   14058   14051   14054   14057   14059
   14051   14054   14057   14060   14052   14051   14054   14055
   14052   14051   14054   14056   14052   14051   14054   14057
   14053   14051   14054   14055   14053   14051   14054   14056
   14053   14051   14054   14057   14054   14057   14060   14061
   14054   14057   14060   14062   14054   14057   14060   14063
   14055   14054   14057   14058   14055   14054   14057   14059
   14055   14054   14057   14060   14056   14054   14057   14058
   14056   14054   14057   14059   14056   14054   14057   14060
   14057   14060   14063   14064   14057   14060   14063   14065
   14057   14060   14063   14066   14058   14057   14060   14061
   14058   14057   14060   14062   14058   14057   14060   14063
   14059   14057   14060   14061   14059   14057   14060   14062
   14059   14057   14060   14063   14060   14063   14066   14067
   14060   14063   14066   14068   14060   14063   14066   14069
   14061   14060   14063   14064   14061   14060   14063   14065
   14061   14060   14063   14066   14062   14060   14063   14064
   14062   14060   14063   14065   14062   14060   14063   14066
   14063   14066   14069   14070   14063   14066   14069   14071
   14063   14066   14069   14072   14064   14063   14066   14067
   14064   14063   14066   14068   14064   14063   14066   14069
   14065   14063   14066   14067   14065   14063   14066   14068
   14065   14063   14066   14069   14066   14069   14072   14073
   14066   14069   14072   14074   14066   14069   14072   14075
   14067   14066   14069   14070   14067   14066   14069   14071
   14067   14066   14069   14072   14068   14066   14069   14070
   14068   14066   14069   14071   14068   14066   14069   14072
   14070   14069   14072   14073   14070   14069   14072   14074
   14070   14069   14072   14075   14071   14069   14072   14073
   14071   14069   14072   14074   14071   14069   14072   14075
   14076   14089   14092   14093   14076   14089   14092   14094
   14076   14089   14092   14099   14077   14076   14081   14082
   14077   14076   14081   14083   14077   14076   14081   14084
   14077   14076   14085   14086   14077   14076   14085   14087
   14077   14076   14085   14088   14077   14076   14089   14090
   14077   14076   14089   14091   14077   14076   14089   14092
   14081   14076   14077   14078   14081   14076   14077   14079
   14081   14076   14077   14080   14081   14076   14085   14086
   14081   14076   14085   14087   14081   14076   14085   14088
   14081   14076   14089   14090   14081   14076   14089   14091
   14081   14076   14089   14092   14085   14076   14077   14078
   14085   14076   14077   14079   14085   14076   14077   14080
   14085   14076   14081   14082   14085   14076   14081   14083
   14085   14076   14081   14084   14085   14076   14089   14090
   14085   14076   14089   14091   14085   14076   14089   14092
   14089   14076   14077   14078   14089   14076   14077   14079
   14089   14076   14077   14080   14089   14076   14081   14082
   14089   14076   14081   14083   14089   14076   14081   14084
   14089   14076   14085   14086   14089   14076   14085   14087
   14089   14076   14085   14088   14089   14092   14099   14095
   14090   14089   14092   14093   14090   14089   14092   14094
   14090   14089   14092   14099   14091   14089   14092   14093
   14091   14089   14092   14094   14091   14089   14092   14099
   14093   14092   14099   14095   14094   14092   14099   14095
   14095   14098   14100   14101   14095   14098   14100   14102
   14095   14098   14100   14103   14096   14095   14099   14092
   14096   14095   14098   14100   14097   14095   14099   14092
   14097   14095   14098   14100   14098   14095   14099   14092
   14098   14100   14103   14104   14098   14100   14103   14111
   14098   14100   14103   14105   14099   14095   14098   14100
   14100   14103   14111   14112   14100   14103   14111   14113
   14100   14103   14111   14114   14100   14103   14105   14106
   14101   14100   14103   14104   14101   14100   14103   14111
   14101   14100   14103   14105   14102   14100   14103   14104
   14102   14100   14103   14111   14102   14100   14103   14105
   14103   14111   14114   14115   14103   14105   14106   14108
   14103   14105   14106   14107   14104   14103   14111   14112
   14104   14103   14111   14113   14104   14103   14111   14114
   14104   14103   14105   14106   14105   14106   14108   14109
   14105   14106   14108   14110   14105   14106   14108   14120
   14105   14103   14111   14112   14105   14103   14111   14113
   14105   14103   14111   14114   14106   14108   14120   14121
   14106   14108   14120   14122   14106   14108   14120   14123
   14107   14106   14108   14109   14107   14106   14108   14110
   14107   14106   14108   14120   14108   14120   14123   14124
   14108   14120   14123   14125   14108   14120   14123   14126
   14109   14108   14120   14121   14109   14108   14120   14122
   14109   14108   14120   14123   14110   14108   14120   14121
   14110   14108   14120   14122   14110   14108   14120   14123
   14111   14103   14105   14106   14111   14114   14115   14117
   14111   14114   14115   14116   14112   14111   14114   14115
   14113   14111   14114   14115   14114   14115   14117   14118
   14114   14115   14117   14119   14114   14115   14117   14157
   14115   14117   14157   14158   14115   14117   14157   14159
   14115   14117   14157   14160   14116   14115   14117   14118
   14116   14115   14117   14119   14116   14115   14117   14157
   14117   14157   14160   14161   14117   14157   14160   14162
   14117   14157   14160   14163   14118   14117   14157   14158
   14118   14117   14157   14159   14118   14117   14157   14160
   14119   14117   14157   14158   14119   14117   14157   14159
   14119   14117   14157   14160   14120   14123   14126   14127
   14120   14123   14126   14128   14120   14123   14126   14129
   14121   14120   14123   14124   14121   14120   14123   14125
   14121   14120   14123   14126   14122   14120   14123   14124
   14122   14120   14123   14125   14122   14120   14123   14126
   14123   14126   14129   14130   14123   14126   14129   14131
   14123   14126   14129   14132   14124   14123   14126   14127
   14124   14123   14126   14128   14124   14123   14126   14129
   14125   14123   14126   14127   14125   14123   14126   14128
   14125   14123   14126   14129   14126   14129   14132   14133
   14126   14129   14132   14134   14126   14129   14132   14135
   14127   14126   14129   14130   14127   14126   14129   14131
   14127   14126   14129   14132   14128   14126   14129   14130
   14128   14126   14129   14131   14128   14126   14129   14132
   14129   14132   14135   14136   14129   14132   14135   14137
   14129   14132   14135   14138   14130   14129   14132   14133
   14130   14129   14132   14134   14130   14129   14132   14135
   14131   14129   14132   14133   14131   14129   14132   14134
   14131   14129   14132   14135   14132   14135   14138   14139
   14132   14135   14138   14140   14132   14135   14138   14141
   14133   14132   14135   14136   14133   14132   14135   14137
   14133   14132   14135   14138   14134   14132   14135   14136
   14134   14132   14135   14137   14134   14132   14135   14138
   14135   14138   14141   14142   14135   14138   14141   14143
   14135   14138   14141   14144   14136   14135   14138   14139
   14136   14135   14138   14140   14136   14135   14138   14141
   14137   14135   14138   14139   14137   14135   14138   14140
   14137   14135   14138   14141   14138   14141   14144   14145
   14138   14141   14144   14146   14138   14141   14144   14147
   14139   14138   14141   14142   14139   14138   14141   14143
   14139   14138   14141   14144   14140   14138   14141   14142
   14140   14138   14141   14143   14140   14138   14141   14144
   14141   14144   14147   14148   14141   14144   14147   14149
   14141   14144   14147   14150   14142   14141   14144   14145
   14142   14141   14144   14146   14142   14141   14144   14147
   14143   14141   14144   14145   14143   14141   14144   14146
   14143   14141   14144   14147   14144   14147   14150   14151
   14144   14147   14150   14152   14144   14147   14150   14153
   14145   14144   14147   14148   14145   14144   14147   14149
   14145   14144   14147   14150   14146   14144   14147   14148
   14146   14144   14147   14149   14146   14144   14147   14150
   14147   14150   14153   14154   14147   14150   14153   14155
   14147   14150   14153   14156   14148   14147   14150   14151
   14148   14147   14150   14152   14148   14147   14150   14153
   14149   14147   14150   14151   14149   14147   14150   14152
   14149   14147   14150   14153   14151   14150   14153   14154
   14151   14150   14153   14155   14151   14150   14153   14156
   14152   14150   14153   14154   14152   14150   14153   14155
   14152   14150   14153   14156   14157   14160   14163   14164
   14157   14160   14163   14165   14157   14160   14163   14166
   14158   14157   14160   14161   14158   14157   14160   14162
   14158   14157   14160   14163   14159   14157   14160   14161
   14159   14157   14160   14162   14159   14157   14160   14163
   14160   14163   14166   14167   14160   14163   14166   14168
   14160   14163   14166   14169   14161   14160   14163   14164
   14161   14160   14163   14165   14161   14160   14163   14166
   14162   14160   14163   14164   14162   14160   14163   14165
   14162   14160   14163   14166   14163   14166   14169   14170
   14163   14166   14169   14171   14163   14166   14169   14172
   14164   14163   14166   14167   14164   14163   14166   14168
   14164   14163   14166   14169   14165   14163   14166   14167
   14165   14163   14166   14168   14165   14163   14166   14169
   14166   14169   14172   14173   14166   14169   14172   14174
   14166   14169   14172   14175   14167   14166   14169   14170
   14167   14166   14169   14171   14167   14166   14169   14172
   14168   14166   14169   14170   14168   14166   14169   14171
   14168   14166   14169   14172   14169   14172   14175   14176
   14169   14172   14175   14177   14169   14172   14175   14178
   14170   14169   14172   14173   14170   14169   14172   14174
   14170   14169   14172   14175   14171   14169   14172   14173
   14171   14169   14172   14174   14171   14169   14172   14175
   14172   14175   14178   14179   14172   14175   14178   14180
   14172   14175   14178   14181   14173   14172   14175   14176
   14173   14172   14175   14177   14173   14172   14175   14178
   14174   14172   14175   14176   14174   14172   14175   14177
   14174   14172   14175   14178   14175   14178   14181   14182
   14175   14178   14181   14183   14175   14178   14181   14184
   14176   14175   14178   14179   14176   14175   14178   14180
   14176   14175   14178   14181   14177   14175   14178   14179
   14177   14175   14178   14180   14177   14175   14178   14181
   14178   14181   14184   14185   14178   14181   14184   14186
   14178   14181   14184   14187   14179   14178   14181   14182
   14179   14178   14181   14183   14179   14178   14181   14184
   14180   14178   14181   14182   14180   14178   14181   14183
   14180   14178   14181   14184   14181   14184   14187   14188
   14181   14184   14187   14189   14181   14184   14187   14190
   14182   14181   14184   14185   14182   14181   14184   14186
   14182   14181   14184   14187   14183   14181   14184   14185
   14183   14181   14184   14186   14183   14181   14184   14187
   14184   14187   14190   14191   14184   14187   14190   14192
   14184   14187   14190   14193   14185   14184   14187   14188
   14185   14184   14187   14189   14185   14184   14187   14190
   14186   14184   14187   14188   14186   14184   14187   14189
   14186   14184   14187   14190   14188   14187   14190   14191
   14188   14187   14190   14192   14188   14187   14190   14193
   14189   14187   14190   14191   14189   14187   14190   14192
   14189   14187   14190   14193   14194   14207   14210   14211
   14194   14207   14210   14212   14194   14207   14210   14217
   14195   14194   14199   14200   14195   14194   14199   14201
   14195   14194   14199   14202   14195   14194   14203   14204
   14195   14194   14203   14205   14195   14194   14203   14206
   14195   14194   14207   14208   14195   14194   14207   14209
   14195   14194   14207   14210   14199   14194   14195   14196
   14199   14194   14195   14197   14199   14194   14195   14198
   14199   14194   14203   14204   14199   14194   14203   14205
   14199   14194   14203   14206   14199   14194   14207   14208
   14199   14194   14207   14209   14199   14194   14207   14210
   14203   14194   14195   14196   14203   14194   14195   14197
   14203   14194   14195   14198   14203   14194   14199   14200
   14203   14194   14199   14201   14203   14194   14199   14202
   14203   14194   14207   14208   14203   14194   14207   14209
   14203   14194   14207   14210   14207   14194   14195   14196
   14207   14194   14195   14197   14207   14194   14195   14198
   14207   14194   14199   14200   14207   14194   14199   14201
   14207   14194   14199   14202   14207   14194   14203   14204
   14207   14194   14203   14205   14207   14194   14203   14206
   14207   14210   14217   14213   14208   14207   14210   14211
   14208   14207   14210   14212   14208   14207   14210   14217
   14209   14207   14210   14211   14209   14207   14210   14212
   14209   14207   14210   14217   14211   14210   14217   14213
   14212   14210   14217   14213   14213   14216   14218   14219
   14213   14216   14218   14220   14213   14216   14218   14221
   14214   14213   14217   14210   14214   14213   14216   14218
   14215   14213   14217   14210   14215   14213   14216   14218
   14216   14213   14217   14210   14216   14218   14221   14222
   14216   14218   14221   14229   14216   14218   14221   14223
   14217   14213   14216   14218   14218   14221   14229   14230
   14218   14221   14229   14231   14218   14221   14229   14232
   14218   14221   14223   14224   14219   14218   14221   14222
   14219   14218   14221   14229   14219   14218   14221   14223
   14220   14218   14221   14222   14220   14218   14221   14229
   14220   14218   14221   14223   14221   14229   14232   14233
   14221   14223   14224   14226   14221   14223   14224   14225
   14222   14221   14229   14230   14222   14221   14229   14231
   14222   14221   14229   14232   14222   14221   14223   14224
   14223   14224   14226   14227   14223   14224   14226   14228
   14223   14224   14226   14238   14223   14221   14229   14230
   14223   14221   14229   14231   14223   14221   14229   14232
   14224   14226   14238   14239   14224   14226   14238   14240
   14224   14226   14238   14241   14225   14224   14226   14227
   14225   14224   14226   14228   14225   14224   14226   14238
   14226   14238   14241   14242   14226   14238   14241   14243
   14226   14238   14241   14244   14227   14226   14238   14239
   14227   14226   14238   14240   14227   14226   14238   14241
   14228   14226   14238   14239   14228   14226   14238   14240
   14228   14226   14238   14241   14229   14221   14223   14224
   14229   14232   14233   14235   14229   14232   14233   14234
   14230   14229   14232   14233   14231   14229   14232   14233
   14232   14233   14235   14236   14232   14233   14235   14237
   14232   14233   14235   14275   14233   14235   14275   14276
   14233   14235   14275   14277   14233   14235   14275   14278
   14234   14233   14235   14236   14234   14233   14235   14237
   14234   14233   14235   14275   14235   14275   14278   14279
   14235   14275   14278   14280   14235   14275   14278   14281
   14236   14235   14275   14276   14236   14235   14275   14277
   14236   14235   14275   14278   14237   14235   14275   14276
   14237   14235   14275   14277   14237   14235   14275   14278
   14238   14241   14244   14245   14238   14241   14244   14246
   14238   14241   14244   14247   14239   14238   14241   14242
   14239   14238   14241   14243   14239   14238   14241   14244
   14240   14238   14241   14242   14240   14238   14241   14243
   14240   14238   14241   14244   14241   14244   14247   14248
   14241   14244   14247   14249   14241   14244   14247   14250
   14242   14241   14244   14245   14242   14241   14244   14246
   14242   14241   14244   14247   14243   14241   14244   14245
   14243   14241   14244   14246   14243   14241   14244   14247
   14244   14247   14250   14251   14244   14247   14250   14252
   14244   14247   14250   14253   14245   14244   14247   14248
   14245   14244   14247   14249   14245   14244   14247   14250
   14246   14244   14247   14248   14246   14244   14247   14249
   14246   14244   14247   14250   14247   14250   14253   14254
   14247   14250   14253   14255   14247   14250   14253   14256
   14248   14247   14250   14251   14248   14247   14250   14252
   14248   14247   14250   14253   14249   14247   14250   14251
   14249   14247   14250   14252   14249   14247   14250   14253
   14250   14253   14256   14257   14250   14253   14256   14258
   14250   14253   14256   14259   14251   14250   14253   14254
   14251   14250   14253   14255   14251   14250   14253   14256
   14252   14250   14253   14254   14252   14250   14253   14255
   14252   14250   14253   14256   14253   14256   14259   14260
   14253   14256   14259   14261   14253   14256   14259   14262
   14254   14253   14256   14257   14254   14253   14256   14258
   14254   14253   14256   14259   14255   14253   14256   14257
   14255   14253   14256   14258   14255   14253   14256   14259
   14256   14259   14262   14263   14256   14259   14262   14264
   14256   14259   14262   14265   14257   14256   14259   14260
   14257   14256   14259   14261   14257   14256   14259   14262
   14258   14256   14259   14260   14258   14256   14259   14261
   14258   14256   14259   14262   14259   14262   14265   14266
   14259   14262   14265   14267   14259   14262   14265   14268
   14260   14259   14262   14263   14260   14259   14262   14264
   14260   14259   14262   14265   14261   14259   14262   14263
   14261   14259   14262   14264   14261   14259   14262   14265
   14262   14265   14268   14269   14262   14265   14268   14270
   14262   14265   14268   14271   14263   14262   14265   14266
   14263   14262   14265   14267   14263   14262   14265   14268
   14264   14262   14265   14266   14264   14262   14265   14267
   14264   14262   14265   14268   14265   14268   14271   14272
   14265   14268   14271   14273   14265   14268   14271   14274
   14266   14265   14268   14269   14266   14265   14268   14270
   14266   14265   14268   14271   14267   14265   14268   14269
   14267   14265   14268   14270   14267   14265   14268   14271
   14269   14268   14271   14272   14269   14268   14271   14273
   14269   14268   14271   14274   14270   14268   14271   14272
   14270   14268   14271   14273   14270   14268   14271   14274
   14275   14278   14281   14282   14275   14278   14281   14283
   14275   14278   14281   14284   14276   14275   14278   14279
   14276   14275   14278   14280   14276   14275   14278   14281
   14277   14275   14278   14279   14277   14275   14278   14280
   14277   14275   14278   14281   14278   14281   14284   14285
   14278   14281   14284   14286   14278   14281   14284   14287
   14279   14278   14281   14282   14279   14278   14281   14283
   14279   14278   14281   14284   14280   14278   14281   14282
   14280   14278   14281   14283   14280   14278   14281   14284
   14281   14284   14287   14288   14281   14284   14287   14289
   14281   14284   14287   14290   14282   14281   14284   14285
   14282   14281   14284   14286   14282   14281   14284   14287
   14283   14281   14284   14285   14283   14281   14284   14286
   14283   14281   14284   14287   14284   14287   14290   14291
   14284   14287   14290   14292   14284   14287   14290   14293
   14285   14284   14287   14288   14285   14284   14287   14289
   14285   14284   14287   14290   14286   14284   14287   14288
   14286   14284   14287   14289   14286   14284   14287   14290
   14287   14290   14293   14294   14287   14290   14293   14295
   14287   14290   14293   14296   14288   14287   14290   14291
   14288   14287   14290   14292   14288   14287   14290   14293
   14289   14287   14290   14291   14289   14287   14290   14292
   14289   14287   14290   14293   14290   14293   14296   14297
   14290   14293   14296   14298   14290   14293   14296   14299
   14291   14290   14293   14294   14291   14290   14293   14295
   14291   14290   14293   14296   14292   14290   14293   14294
   14292   14290   14293   14295   14292   14290   14293   14296
   14293   14296   14299   14300   14293   14296   14299   14301
   14293   14296   14299   14302   14294   14293   14296   14297
   14294   14293   14296   14298   14294   14293   14296   14299
   14295   14293   14296   14297   14295   14293   14296   14298
   14295   14293   14296   14299   14296   14299   14302   14303
   14296   14299   14302   14304   14296   14299   14302   14305
   14297   14296   14299   14300   14297   14296   14299   14301
   14297   14296   14299   14302   14298   14296   14299   14300
   14298   14296   14299   14301   14298   14296   14299   14302
   14299   14302   14305   14306   14299   14302   14305   14307
   14299   14302   14305   14308   14300   14299   14302   14303
   14300   14299   14302   14304   14300   14299   14302   14305
   14301   14299   14302   14303   14301   14299   14302   14304
   14301   14299   14302   14305   14302   14305   14308   14309
   14302   14305   14308   14310   14302   14305   14308   14311
   14303   14302   14305   14306   14303   14302   14305   14307
   14303   14302   14305   14308   14304   14302   14305   14306
   14304   14302   14305   14307   14304   14302   14305   14308
   14306   14305   14308   14309   14306   14305   14308   14310
   14306   14305   14308   14311   14307   14305   14308   14309
   14307   14305   14308   14310   14307   14305   14308   14311
   14312   14325   14328   14329   14312   14325   14328   14330
   14312   14325   14328   14335   14313   14312   14317   14318
   14313   14312   14317   14319   14313   14312   14317   14320
   14313   14312   14321   14322   14313   14312   14321   14323
   14313   14312   14321   14324   14313   14312   14325   14326
   14313   14312   14325   14327   14313   14312   14325   14328
   14317   14312   14313   14314   14317   14312   14313   14315
   14317   14312   14313   14316   14317   14312   14321   14322
   14317   14312   14321   14323   14317   14312   14321   14324
   14317   14312   14325   14326   14317   14312   14325   14327
   14317   14312   14325   14328   14321   14312   14313   14314
   14321   14312   14313   14315   14321   14312   14313   14316
   14321   14312   14317   14318   14321   14312   14317   14319
   14321   14312   14317   14320   14321   14312   14325   14326
   14321   14312   14325   14327   14321   14312   14325   14328
   14325   14312   14313   14314   14325   14312   14313   14315
   14325   14312   14313   14316   14325   14312   14317   14318
   14325   14312   14317   14319   14325   14312   14317   14320
   14325   14312   14321   14322   14325   14312   14321   14323
   14325   14312   14321   14324   14325   14328   14335   14331
   14326   14325   14328   14329   14326   14325   14328   14330
   14326   14325   14328   14335   14327   14325   14328   14329
   14327   14325   14328   14330   14327   14325   14328   14335
   14329   14328   14335   14331   14330   14328   14335   14331
   14331   14334   14336   14337   14331   14334   14336   14338
   14331   14334   14336   14339   14332   14331   14335   14328
   14332   14331   14334   14336   14333   14331   14335   14328
   14333   14331   14334   14336   14334   14331   14335   14328
   14334   14336   14339   14340   14334   14336   14339   14347
   14334   14336   14339   14341   14335   14331   14334   14336
   14336   14339   14347   14348   14336   14339   14347   14349
   14336   14339   14347   14350   14336   14339   14341   14342
   14337   14336   14339   14340   14337   14336   14339   14347
   14337   14336   14339   14341   14338   14336   14339   14340
   14338   14336   14339   14347   14338   14336   14339   14341
   14339   14347   14350   14351   14339   14341   14342   14344
   14339   14341   14342   14343   14340   14339   14347   14348
   14340   14339   14347   14349   14340   14339   14347   14350
   14340   14339   14341   14342   14341   14342   14344   14345
   14341   14342   14344   14346   14341   14342   14344   14356
   14341   14339   14347   14348   14341   14339   14347   14349
   14341   14339   14347   14350   14342   14344   14356   14357
   14342   14344   14356   14358   14342   14344   14356   14359
   14343   14342   14344   14345   14343   14342   14344   14346
   14343   14342   14344   14356   14344   14356   14359   14360
   14344   14356   14359   14361   14344   14356   14359   14362
   14345   14344   14356   14357   14345   14344   14356   14358
   14345   14344   14356   14359   14346   14344   14356   14357
   14346   14344   14356   14358   14346   14344   14356   14359
   14347   14339   14341   14342   14347   14350   14351   14353
   14347   14350   14351   14352   14348   14347   14350   14351
   14349   14347   14350   14351   14350   14351   14353   14354
   14350   14351   14353   14355   14350   14351   14353   14393
   14351   14353   14393   14394   14351   14353   14393   14395
   14351   14353   14393   14396   14352   14351   14353   14354
   14352   14351   14353   14355   14352   14351   14353   14393
   14353   14393   14396   14397   14353   14393   14396   14398
   14353   14393   14396   14399   14354   14353   14393   14394
   14354   14353   14393   14395   14354   14353   14393   14396
   14355   14353   14393   14394   14355   14353   14393   14395
   14355   14353   14393   14396   14356   14359   14362   14363
   14356   14359   14362   14364   14356   14359   14362   14365
   14357   14356   14359   14360   14357   14356   14359   14361
   14357   14356   14359   14362   14358   14356   14359   14360
   14358   14356   14359   14361   14358   14356   14359   14362
   14359   14362   14365   14366   14359   14362   14365   14367
   14359   14362   14365   14368   14360   14359   14362   14363
   14360   14359   14362   14364   14360   14359   14362   14365
   14361   14359   14362   14363   14361   14359   14362   14364
   14361   14359   14362   14365   14362   14365   14368   14369
   14362   14365   14368   14370   14362   14365   14368   14371
   14363   14362   14365   14366   14363   14362   14365   14367
   14363   14362   14365   14368   14364   14362   14365   14366
   14364   14362   14365   14367   14364   14362   14365   14368
   14365   14368   14371   14372   14365   14368   14371   14373
   14365   14368   14371   14374   14366   14365   14368   14369
   14366   14365   14368   14370   14366   14365   14368   14371
   14367   14365   14368   14369   14367   14365   14368   14370
   14367   14365   14368   14371   14368   14371   14374   14375
   14368   14371   14374   14376   14368   14371   14374   14377
   14369   14368   14371   14372   14369   14368   14371   14373
   14369   14368   14371   14374   14370   14368   14371   14372
   14370   14368   14371   14373   14370   14368   14371   14374
   14371   14374   14377   14378   14371   14374   14377   14379
   14371   14374   14377   14380   14372   14371   14374   14375
   14372   14371   14374   14376   14372   14371   14374   14377
   14373   14371   14374   14375   14373   14371   14374   14376
   14373   14371   14374   14377   14374   14377   14380   14381
   14374   14377   14380   14382   14374   14377   14380   14383
   14375   14374   14377   14378   14375   14374   14377   14379
   14375   14374   14377   14380   14376   14374   14377   14378
   14376   14374   14377   14379   14376   14374   14377   14380
   14377   14380   14383   14384   14377   14380   14383   14385
   14377   14380   14383   14386   14378   14377   14380   14381
   14378   14377   14380   14382   14378   14377   14380   14383
   14379   14377   14380   14381   14379   14377   14380   14382
   14379   14377   14380   14383   14380   14383   14386   14387
   14380   14383   14386   14388   14380   14383   14386   14389
   14381   14380   14383   14384   14381   14380   14383   14385
   14381   14380   14383   14386   14382   14380   14383   14384
   14382   14380   14383   14385   14382   14380   14383   14386
   14383   14386   14389   14390   14383   14386   14389   14391
   14383   14386   14389   14392   14384   14383   14386   14387
   14384   14383   14386   14388   14384   14383   14386   14389
   14385   14383   14386   14387   14385   14383   14386   14388
   14385   14383   14386   14389   14387   14386   14389   14390
   14387   14386   14389   14391   14387   14386   14389   14392
   14388   14386   14389   14390   14388   14386   14389   14391
   14388   14386   14389   14392   14393   14396   14399   14400
   14393   14396   14399   14401   14393   14396   14399   14402
   14394   14393   14396   14397   14394   14393   14396   14398
   14394   14393   14396   14399   14395   14393   14396   14397
   14395   14393   14396   14398   14395   14393   14396   14399
   14396   14399   14402   14403   14396   14399   14402   14404
   14396   14399   14402   14405   14397   14396   14399   14400
   14397   14396   14399   14401   14397   14396   14399   14402
   14398   14396   14399   14400   14398   14396   14399   14401
   14398   14396   14399   14402   14399   14402   14405   14406
   14399   14402   14405   14407   14399   14402   14405   14408
   14400   14399   14402   14403   14400   14399   14402   14404
   14400   14399   14402   14405   14401   14399   14402   14403
   14401   14399   14402   14404   14401   14399   14402   14405
   14402   14405   14408   14409   14402   14405   14408   14410
   14402   14405   14408   14411   14403   14402   14405   14406
   14403   14402   14405   14407   14403   14402   14405   14408
   14404   14402   14405   14406   14404   14402   14405   14407
   14404   14402   14405   14408   14405   14408   14411   14412
   14405   14408   14411   14413   14405   14408   14411   14414
   14406   14405   14408   14409   14406   14405   14408   14410
   14406   14405   14408   14411   14407   14405   14408   14409
   14407   14405   14408   14410   14407   14405   14408   14411
   14408   14411   14414   14415   14408   14411   14414   14416
   14408   14411   14414   14417   14409   14408   14411   14412
   14409   14408   14411   14413   14409   14408   14411   14414
   14410   14408   14411   14412   14410   14408   14411   14413
   14410   14408   14411   14414   14411   14414   14417   14418
   14411   14414   14417   14419   14411   14414   14417   14420
   14412   14411   14414   14415   14412   14411   14414   14416
   14412   14411   14414   14417   14413   14411   14414   14415
   14413   14411   14414   14416   14413   14411   14414   14417
   14414   14417   14420   14421   14414   14417   14420   14422
   14414   14417   14420   14423   14415   14414   14417   14418
   14415   14414   14417   14419   14415   14414   14417   14420
   14416   14414   14417   14418   14416   14414   14417   14419
   14416   14414   14417   14420   14417   14420   14423   14424
   14417   14420   14423   14425   14417   14420   14423   14426
   14418   14417   14420   14421   14418   14417   14420   14422
   14418   14417   14420   14423   14419   14417   14420   14421
   14419   14417   14420   14422   14419   14417   14420   14423
   14420   14423   14426   14427   14420   14423   14426   14428
   14420   14423   14426   14429   14421   14420   14423   14424
   14421   14420   14423   14425   14421   14420   14423   14426
   14422   14420   14423   14424   14422   14420   14423   14425
   14422   14420   14423   14426   14424   14423   14426   14427
   14424   14423   14426   14428   14424   14423   14426   14429
   14425   14423   14426   14427   14425   14423   14426   14428
   14425   14423   14426   14429   14430   14443   14446   14447
   14430   14443   14446   14448   14430   14443   14446   14453
   14431   14430   14435   14436   14431   14430   14435   14437
   14431   14430   14435   14438   14431   14430   14439   14440
   14431   14430   14439   14441   14431   14430   14439   14442
   14431   14430   14443   14444   14431   14430   14443   14445
   14431   14430   14443   14446   14435   14430   14431   14432
   14435   14430   14431   14433   14435   14430   14431   14434
   14435   14430   14439   14440   14435   14430   14439   14441
   14435   14430   14439   14442   14435   14430   14443   14444
   14435   14430   14443   14445   14435   14430   14443   14446
   14439   14430   14431   14432   14439   14430   14431   14433
   14439   14430   14431   14434   14439   14430   14435   14436
   14439   14430   14435   14437   14439   14430   14435   14438
   14439   14430   14443   14444   14439   14430   14443   14445
   14439   14430   14443   14446   14443   14430   14431   14432
   14443   14430   14431   14433   14443   14430   14431   14434
   14443   14430   14435   14436   14443   14430   14435   14437
   14443   14430   14435   14438   14443   14430   14439   14440
   14443   14430   14439   14441   14443   14430   14439   14442
   14443   14446   14453   14449   14444   14443   14446   14447
   14444   14443   14446   14448   14444   14443   14446   14453
   14445   14443   14446   14447   14445   14443   14446   14448
   14445   14443   14446   14453   14447   14446   14453   14449
   14448   14446   14453   14449   14449   14452   14454   14455
   14449   14452   14454   14456   14449   14452   14454   14457
   14450   14449   14453   14446   14450   14449   14452   14454
   14451   14449   14453   14446   14451   14449   14452   14454
   14452   14449   14453   14446   14452   14454   14457   14458
   14452   14454   14457   14465   14452   14454   14457   14459
   14453   14449   14452   14454   14454   14457   14465   14466
   14454   14457   14465   14467   14454   14457   14465   14468
   14454   14457   14459   14460   14455   14454   14457   14458
   14455   14454   14457   14465   14455   14454   14457   14459
   14456   14454   14457   14458   14456   14454   14457   14465
   14456   14454   14457   14459   14457   14465   14468   14469
   14457   14459   14460   14462   14457   14459   14460   14461
   14458   14457   14465   14466   14458   14457   14465   14467
   14458   14457   14465   14468   14458   14457   14459   14460
   14459   14460   14462   14463   14459   14460   14462   14464
   14459   14460   14462   14474   14459   14457   14465   14466
   14459   14457   14465   14467   14459   14457   14465   14468
   14460   14462   14474   14475   14460   14462   14474   14476
   14460   14462   14474   14477   14461   14460   14462   14463
   14461   14460   14462   14464   14461   14460   14462   14474
   14462   14474   14477   14478   14462   14474   14477   14479
   14462   14474   14477   14480   14463   14462   14474   14475
   14463   14462   14474   14476   14463   14462   14474   14477
   14464   14462   14474   14475   14464   14462   14474   14476
   14464   14462   14474   14477   14465   14457   14459   14460
   14465   14468   14469   14471   14465   14468   14469   14470
   14466   14465   14468   14469   14467   14465   14468   14469
   14468   14469   14471   14472   14468   14469   14471   14473
   14468   14469   14471   14511   14469   14471   14511   14512
   14469   14471   14511   14513   14469   14471   14511   14514
   14470   14469   14471   14472   14470   14469   14471   14473
   14470   14469   14471   14511   14471   14511   14514   14515
   14471   14511   14514   14516   14471   14511   14514   14517
   14472   14471   14511   14512   14472   14471   14511   14513
   14472   14471   14511   14514   14473   14471   14511   14512
   14473   14471   14511   14513   14473   14471   14511   14514
   14474   14477   14480   14481   14474   14477   14480   14482
   14474   14477   14480   14483   14475   14474   14477   14478
   14475   14474   14477   14479   14475   14474   14477   14480
   14476   14474   14477   14478   14476   14474   14477   14479
   14476   14474   14477   14480   14477   14480   14483   14484
   14477   14480   14483   14485   14477   14480   14483   14486
   14478   14477   14480   14481   14478   14477   14480   14482
   14478   14477   14480   14483   14479   14477   14480   14481
   14479   14477   14480   14482   14479   14477   14480   14483
   14480   14483   14486   14487   14480   14483   14486   14488
   14480   14483   14486   14489   14481   14480   14483   14484
   14481   14480   14483   14485   14481   14480   14483   14486
   14482   14480   14483   14484   14482   14480   14483   14485
   14482   14480   14483   14486   14483   14486   14489   14490
   14483   14486   14489   14491   14483   14486   14489   14492
   14484   14483   14486   14487   14484   14483   14486   14488
   14484   14483   14486   14489   14485   14483   14486   14487
   14485   14483   14486   14488   14485   14483   14486   14489
   14486   14489   14492   14493   14486   14489   14492   14494
   14486   14489   14492   14495   14487   14486   14489   14490
   14487   14486   14489   14491   14487   14486   14489   14492
   14488   14486   14489   14490   14488   14486   14489   14491
   14488   14486   14489   14492   14489   14492   14495   14496
   14489   14492   14495   14497   14489   14492   14495   14498
   14490   14489   14492   14493   14490   14489   14492   14494
   14490   14489   14492   14495   14491   14489   14492   14493
   14491   14489   14492   14494   14491   14489   14492   14495
   14492   14495   14498   14499   14492   14495   14498   14500
   14492   14495   14498   14501   14493   14492   14495   14496
   14493   14492   14495   14497   14493   14492   14495   14498
   14494   14492   14495   14496   14494   14492   14495   14497
   14494   14492   14495   14498   14495   14498   14501   14502
   14495   14498   14501   14503   14495   14498   14501   14504
   14496   14495   14498   14499   14496   14495   14498   14500
   14496   14495   14498   14501   14497   14495   14498   14499
   14497   14495   14498   14500   14497   14495   14498   14501
   14498   14501   14504   14505   14498   14501   14504   14506
   14498   14501   14504   14507   14499   14498   14501   14502
   14499   14498   14501   14503   14499   14498   14501   14504
   14500   14498   14501   14502   14500   14498   14501   14503
   14500   14498   14501   14504   14501   14504   14507   14508
   14501   14504   14507   14509   14501   14504   14507   14510
   14502   14501   14504   14505   14502   14501   14504   14506
   14502   14501   14504   14507   14503   14501   14504   14505
   14503   14501   14504   14506   14503   14501   14504   14507
   14505   14504   14507   14508   14505   14504   14507   14509
   14505   14504   14507   14510   14506   14504   14507   14508
   14506   14504   14507   14509   14506   14504   14507   14510
   14511   14514   14517   14518   14511   14514   14517   14519
   14511   14514   14517   14520   14512   14511   14514   14515
   14512   14511   14514   14516   14512   14511   14514   14517
   14513   14511   14514   14515   14513   14511   14514   14516
   14513   14511   14514   14517   14514   14517   14520   14521
   14514   14517   14520   14522   14514   14517   14520   14523
   14515   14514   14517   14518   14515   14514   14517   14519
   14515   14514   14517   14520   14516   14514   14517   14518
   14516   14514   14517   14519   14516   14514   14517   14520
   14517   14520   14523   14524   14517   14520   14523   14525
   14517   14520   14523   14526   14518   14517   14520   14521
   14518   14517   14520   14522   14518   14517   14520   14523
   14519   14517   14520   14521   14519   14517   14520   14522
   14519   14517   14520   14523   14520   14523   14526   14527
   14520   14523   14526   14528   14520   14523   14526   14529
   14521   14520   14523   14524   14521   14520   14523   14525
   14521   14520   14523   14526   14522   14520   14523   14524
   14522   14520   14523   14525   14522   14520   14523   14526
   14523   14526   14529   14530   14523   14526   14529   14531
   14523   14526   14529   14532   14524   14523   14526   14527
   14524   14523   14526   14528   14524   14523   14526   14529
   14525   14523   14526   14527   14525   14523   14526   14528
   14525   14523   14526   14529   14526   14529   14532   14533
   14526   14529   14532   14534   14526   14529   14532   14535
   14527   14526   14529   14530   14527   14526   14529   14531
   14527   14526   14529   14532   14528   14526   14529   14530
   14528   14526   14529   14531   14528   14526   14529   14532
   14529   14532   14535   14536   14529   14532   14535   14537
   14529   14532   14535   14538   14530   14529   14532   14533
   14530   14529   14532   14534   14530   14529   14532   14535
   14531   14529   14532   14533   14531   14529   14532   14534
   14531   14529   14532   14535   14532   14535   14538   14539
   14532   14535   14538   14540   14532   14535   14538   14541
   14533   14532   14535   14536   14533   14532   14535   14537
   14533   14532   14535   14538   14534   14532   14535   14536
   14534   14532   14535   14537   14534   14532   14535   14538
   14535   14538   14541   14542   14535   14538   14541   14543
   14535   14538   14541   14544   14536   14535   14538   14539
   14536   14535   14538   14540   14536   14535   14538   14541
   14537   14535   14538   14539   14537   14535   14538   14540
   14537   14535   14538   14541   14538   14541   14544   14545
   14538   14541   14544   14546   14538   14541   14544   14547
   14539   14538   14541   14542   14539   14538   14541   14543
   14539   14538   14541   14544   14540   14538   14541   14542
   14540   14538   14541   14543   14540   14538   14541   14544
   14542   14541   14544   14545   14542   14541   14544   14546
   14542   14541   14544   14547   14543   14541   14544   14545
   14543   14541   14544   14546   14543   14541   14544   14547
   14548   14561   14564   14565   14548   14561   14564   14566
   14548   14561   14564   14571   14549   14548   14553   14554
   14549   14548   14553   14555   14549   14548   14553   14556
   14549   14548   14557   14558   14549   14548   14557   14559
   14549   14548   14557   14560   14549   14548   14561   14562
   14549   14548   14561   14563   14549   14548   14561   14564
   14553   14548   14549   14550   14553   14548   14549   14551
   14553   14548   14549   14552   14553   14548   14557   14558
   14553   14548   14557   14559   14553   14548   14557   14560
   14553   14548   14561   14562   14553   14548   14561   14563
   14553   14548   14561   14564   14557   14548   14549   14550
   14557   14548   14549   14551   14557   14548   14549   14552
   14557   14548   14553   14554   14557   14548   14553   14555
   14557   14548   14553   14556   14557   14548   14561   14562
   14557   14548   14561   14563   14557   14548   14561   14564
   14561   14548   14549   14550   14561   14548   14549   14551
   14561   14548   14549   14552   14561   14548   14553   14554
   14561   14548   14553   14555   14561   14548   14553   14556
   14561   14548   14557   14558   14561   14548   14557   14559
   14561   14548   14557   14560   14561   14564   14571   14567
   14562   14561   14564   14565   14562   14561   14564   14566
   14562   14561   14564   14571   14563   14561   14564   14565
   14563   14561   14564   14566   14563   14561   14564   14571
   14565   14564   14571   14567   14566   14564   14571   14567
   14567   14570   14572   14573   14567   14570   14572   14574
   14567   14570   14572   14575   14568   14567   14571   14564
   14568   14567   14570   14572   14569   14567   14571   14564
   14569   14567   14570   14572   14570   14567   14571   14564
   14570   14572   14575   14576   14570   14572   14575   14583
   14570   14572   14575   14577   14571   14567   14570   14572
   14572   14575   14583   14584   14572   14575   14583   14585
   14572   14575   14583   14586   14572   14575   14577   14578
   14573   14572   14575   14576   14573   14572   14575   14583
   14573   14572   14575   14577   14574   14572   14575   14576
   14574   14572   14575   14583   14574   14572   14575   14577
   14575   14583   14586   14587   14575   14577   14578   14580
   14575   14577   14578   14579   14576   14575   14583   14584
   14576   14575   14583   14585   14576   14575   14583   14586
   14576   14575   14577   14578   14577   14578   14580   14581
   14577   14578   14580   14582   14577   14578   14580   14592
   14577   14575   14583   14584   14577   14575   14583   14585
   14577   14575   14583   14586   14578   14580   14592   14593
   14578   14580   14592   14594   14578   14580   14592   14595
   14579   14578   14580   14581   14579   14578   14580   14582
   14579   14578   14580   14592   14580   14592   14595   14596
   14580   14592   14595   14597   14580   14592   14595   14598
   14581   14580   14592   14593   14581   14580   14592   14594
   14581   14580   14592   14595   14582   14580   14592   14593
   14582   14580   14592   14594   14582   14580   14592   14595
   14583   14575   14577   14578   14583   14586   14587   14589
   14583   14586   14587   14588   14584   14583   14586   14587
   14585   14583   14586   14587   14586   14587   14589   14590
   14586   14587   14589   14591   14586   14587   14589   14629
   14587   14589   14629   14630   14587   14589   14629   14631
   14587   14589   14629   14632   14588   14587   14589   14590
   14588   14587   14589   14591   14588   14587   14589   14629
   14589   14629   14632   14633   14589   14629   14632   14634
   14589   14629   14632   14635   14590   14589   14629   14630
   14590   14589   14629   14631   14590   14589   14629   14632
   14591   14589   14629   14630   14591   14589   14629   14631
   14591   14589   14629   14632   14592   14595   14598   14599
   14592   14595   14598   14600   14592   14595   14598   14601
   14593   14592   14595   14596   14593   14592   14595   14597
   14593   14592   14595   14598   14594   14592   14595   14596
   14594   14592   14595   14597   14594   14592   14595   14598
   14595   14598   14601   14602   14595   14598   14601   14603
   14595   14598   14601   14604   14596   14595   14598   14599
   14596   14595   14598   14600   14596   14595   14598   14601
   14597   14595   14598   14599   14597   14595   14598   14600
   14597   14595   14598   14601   14598   14601   14604   14605
   14598   14601   14604   14606   14598   14601   14604   14607
   14599   14598   14601   14602   14599   14598   14601   14603
   14599   14598   14601   14604   14600   14598   14601   14602
   14600   14598   14601   14603   14600   14598   14601   14604
   14601   14604   14607   14608   14601   14604   14607   14609
   14601   14604   14607   14610   14602   14601   14604   14605
   14602   14601   14604   14606   14602   14601   14604   14607
   14603   14601   14604   14605   14603   14601   14604   14606
   14603   14601   14604   14607   14604   14607   14610   14611
   14604   14607   14610   14612   14604   14607   14610   14613
   14605   14604   14607   14608   14605   14604   14607   14609
   14605   14604   14607   14610   14606   14604   14607   14608
   14606   14604   14607   14609   14606   14604   14607   14610
   14607   14610   14613   14614   14607   14610   14613   14615
   14607   14610   14613   14616   14608   14607   14610   14611
   14608   14607   14610   14612   14608   14607   14610   14613
   14609   14607   14610   14611   14609   14607   14610   14612
   14609   14607   14610   14613   14610   14613   14616   14617
   14610   14613   14616   14618   14610   14613   14616   14619
   14611   14610   14613   14614   14611   14610   14613   14615
   14611   14610   14613   14616   14612   14610   14613   14614
   14612   14610   14613   14615   14612   14610   14613   14616
   14613   14616   14619   14620   14613   14616   14619   14621
   14613   14616   14619   14622   14614   14613   14616   14617
   14614   14613   14616   14618   14614   14613   14616   14619
   14615   14613   14616   14617   14615   14613   14616   14618
   14615   14613   14616   14619   14616   14619   14622   14623
   14616   14619   14622   14624   14616   14619   14622   14625
   14617   14616   14619   14620   14617   14616   14619   14621
   14617   14616   14619   14622   14618   14616   14619   14620
   14618   14616   14619   14621   14618   14616   14619   14622
   14619   14622   14625   14626   14619   14622   14625   14627
   14619   14622   14625   14628   14620   14619   14622   14623
   14620   14619   14622   14624   14620   14619   14622   14625
   14621   14619   14622   14623   14621   14619   14622   14624
   14621   14619   14622   14625   14623   14622   14625   14626
   14623   14622   14625   14627   14623   14622   14625   14628
   14624   14622   14625   14626   14624   14622   14625   14627
   14624   14622   14625   14628   14629   14632   14635   14636
   14629   14632   14635   14637   14629   14632   14635   14638
   14630   14629   14632   14633   14630   14629   14632   14634
   14630   14629   14632   14635   14631   14629   14632   14633
   14631   14629   14632   14634   14631   14629   14632   14635
   14632   14635   14638   14639   14632   14635   14638   14640
   14632   14635   14638   14641   14633   14632   14635   14636
   14633   14632   14635   14637   14633   14632   14635   14638
   14634   14632   14635   14636   14634   14632   14635   14637
   14634   14632   14635   14638   14635   14638   14641   14642
   14635   14638   14641   14643   14635   14638   14641   14644
   14636   14635   14638   14639   14636   14635   14638   14640
   14636   14635   14638   14641   14637   14635   14638   14639
   14637   14635   14638   14640   14637   14635   14638   14641
   14638   14641   14644   14645   14638   14641   14644   14646
   14638   14641   14644   14647   14639   14638   14641   14642
   14639   14638   14641   14643   14639   14638   14641   14644
   14640   14638   14641   14642   14640   14638   14641   14643
   14640   14638   14641   14644   14641   14644   14647   14648
   14641   14644   14647   14649   14641   14644   14647   14650
   14642   14641   14644   14645   14642   14641   14644   14646
   14642   14641   14644   14647   14643   14641   14644   14645
   14643   14641   14644   14646   14643   14641   14644   14647
   14644   14647   14650   14651   14644   14647   14650   14652
   14644   14647   14650   14653   14645   14644   14647   14648
   14645   14644   14647   14649   14645   14644   14647   14650
   14646   14644   14647   14648   14646   14644   14647   14649
   14646   14644   14647   14650   14647   14650   14653   14654
   14647   14650   14653   14655   14647   14650   14653   14656
   14648   14647   14650   14651   14648   14647   14650   14652
   14648   14647   14650   14653   14649   14647   14650   14651
   14649   14647   14650   14652   14649   14647   14650   14653
   14650   14653   14656   14657   14650   14653   14656   14658
   14650   14653   14656   14659   14651   14650   14653   14654
   14651   14650   14653   14655   14651   14650   14653   14656
   14652   14650   14653   14654   14652   14650   14653   14655
   14652   14650   14653   14656   14653   14656   14659   14660
   14653   14656   14659   14661   14653   14656   14659   14662
   14654   14653   14656   14657   14654   14653   14656   14658
   14654   14653   14656   14659   14655   14653   14656   14657
   14655   14653   14656   14658   14655   14653   14656   14659
   14656   14659   14662   14663   14656   14659   14662   14664
   14656   14659   14662   14665   14657   14656   14659   14660
   14657   14656   14659   14661   14657   14656   14659   14662
   14658   14656   14659   14660   14658   14656   14659   14661
   14658   14656   14659   14662   14660   14659   14662   14663
   14660   14659   14662   14664   14660   14659   14662   14665
   14661   14659   14662   14663   14661   14659   14662   14664
   14661   14659   14662   14665   14666   14679   14682   14683
   14666   14679   14682   14684   14666   14679   14682   14689
   14667   14666   14671   14672   14667   14666   14671   14673
   14667   14666   14671   14674   14667   14666   14675   14676
   14667   14666   14675   14677   14667   14666   14675   14678
   14667   14666   14679   14680   14667   14666   14679   14681
   14667   14666   14679   14682   14671   14666   14667   14668
   14671   14666   14667   14669   14671   14666   14667   14670
   14671   14666   14675   14676   14671   14666   14675   14677
   14671   14666   14675   14678   14671   14666   14679   14680
   14671   14666   14679   14681   14671   14666   14679   14682
   14675   14666   14667   14668   14675   14666   14667   14669
   14675   14666   14667   14670   14675   14666   14671   14672
   14675   14666   14671   14673   14675   14666   14671   14674
   14675   14666   14679   14680   14675   14666   14679   14681
   14675   14666   14679   14682   14679   14666   14667   14668
   14679   14666   14667   14669   14679   14666   14667   14670
   14679   14666   14671   14672   14679   14666   14671   14673
   14679   14666   14671   14674   14679   14666   14675   14676
   14679   14666   14675   14677   14679   14666   14675   14678
   14679   14682   14689   14685   14680   14679   14682   14683
   14680   14679   14682   14684   14680   14679   14682   14689
   14681   14679   14682   14683   14681   14679   14682   14684
   14681   14679   14682   14689   14683   14682   14689   14685
   14684   14682   14689   14685   14685   14688   14690   14691
   14685   14688   14690   14692   14685   14688   14690   14693
   14686   14685   14689   14682   14686   14685   14688   14690
   14687   14685   14689   14682   14687   14685   14688   14690
   14688   14685   14689   14682   14688   14690   14693   14694
   14688   14690   14693   14701   14688   14690   14693   14695
   14689   14685   14688   14690   14690   14693   14701   14702
   14690   14693   14701   14703   14690   14693   14701   14704
   14690   14693   14695   14696   14691   14690   14693   14694
   14691   14690   14693   14701   14691   14690   14693   14695
   14692   14690   14693   14694   14692   14690   14693   14701
   14692   14690   14693   14695   14693   14701   14704   14705
   14693   14695   14696   14698   14693   14695   14696   14697
   14694   14693   14701   14702   14694   14693   14701   14703
   14694   14693   14701   14704   14694   14693   14695   14696
   14695   14696   14698   14699   14695   14696   14698   14700
   14695   14696   14698   14710   14695   14693   14701   14702
   14695   14693   14701   14703   14695   14693   14701   14704
   14696   14698   14710   14711   14696   14698   14710   14712
   14696   14698   14710   14713   14697   14696   14698   14699
   14697   14696   14698   14700   14697   14696   14698   14710
   14698   14710   14713   14714   14698   14710   14713   14715
   14698   14710   14713   14716   14699   14698   14710   14711
   14699   14698   14710   14712   14699   14698   14710   14713
   14700   14698   14710   14711   14700   14698   14710   14712
   14700   14698   14710   14713   14701   14693   14695   14696
   14701   14704   14705   14707   14701   14704   14705   14706
   14702   14701   14704   14705   14703   14701   14704   14705
   14704   14705   14707   14708   14704   14705   14707   14709
   14704   14705   14707   14747   14705   14707   14747   14748
   14705   14707   14747   14749   14705   14707   14747   14750
   14706   14705   14707   14708   14706   14705   14707   14709
   14706   14705   14707   14747   14707   14747   14750   14751
   14707   14747   14750   14752   14707   14747   14750   14753
   14708   14707   14747   14748   14708   14707   14747   14749
   14708   14707   14747   14750   14709   14707   14747   14748
   14709   14707   14747   14749   14709   14707   14747   14750
   14710   14713   14716   14717   14710   14713   14716   14718
   14710   14713   14716   14719   14711   14710   14713   14714
   14711   14710   14713   14715   14711   14710   14713   14716
   14712   14710   14713   14714   14712   14710   14713   14715
   14712   14710   14713   14716   14713   14716   14719   14720
   14713   14716   14719   14721   14713   14716   14719   14722
   14714   14713   14716   14717   14714   14713   14716   14718
   14714   14713   14716   14719   14715   14713   14716   14717
   14715   14713   14716   14718   14715   14713   14716   14719
   14716   14719   14722   14723   14716   14719   14722   14724
   14716   14719   14722   14725   14717   14716   14719   14720
   14717   14716   14719   14721   14717   14716   14719   14722
   14718   14716   14719   14720   14718   14716   14719   14721
   14718   14716   14719   14722   14719   14722   14725   14726
   14719   14722   14725   14727   14719   14722   14725   14728
   14720   14719   14722   14723   14720   14719   14722   14724
   14720   14719   14722   14725   14721   14719   14722   14723
   14721   14719   14722   14724   14721   14719   14722   14725
   14722   14725   14728   14729   14722   14725   14728   14730
   14722   14725   14728   14731   14723   14722   14725   14726
   14723   14722   14725   14727   14723   14722   14725   14728
   14724   14722   14725   14726   14724   14722   14725   14727
   14724   14722   14725   14728   14725   14728   14731   14732
   14725   14728   14731   14733   14725   14728   14731   14734
   14726   14725   14728   14729   14726   14725   14728   14730
   14726   14725   14728   14731   14727   14725   14728   14729
   14727   14725   14728   14730   14727   14725   14728   14731
   14728   14731   14734   14735   14728   14731   14734   14736
   14728   14731   14734   14737   14729   14728   14731   14732
   14729   14728   14731   14733   14729   14728   14731   14734
   14730   14728   14731   14732   14730   14728   14731   14733
   14730   14728   14731   14734   14731   14734   14737   14738
   14731   14734   14737   14739   14731   14734   14737   14740
   14732   14731   14734   14735   14732   14731   14734   14736
   14732   14731   14734   14737   14733   14731   14734   14735
   14733   14731   14734   14736   14733   14731   14734   14737
   14734   14737   14740   14741   14734   14737   14740   14742
   14734   14737   14740   14743   14735   14734   14737   14738
   14735   14734   14737   14739   14735   14734   14737   14740
   14736   14734   14737   14738   14736   14734   14737   14739
   14736   14734   14737   14740   14737   14740   14743   14744
   14737   14740   14743   14745   14737   14740   14743   14746
   14738   14737   14740   14741   14738   14737   14740   14742
   14738   14737   14740   14743   14739   14737   14740   14741
   14739   14737   14740   14742   14739   14737   14740   14743
   14741   14740   14743   14744   14741   14740   14743   14745
   14741   14740   14743   14746   14742   14740   14743   14744
   14742   14740   14743   14745   14742   14740   14743   14746
   14747   14750   14753   14754   14747   14750   14753   14755
   14747   14750   14753   14756   14748   14747   14750   14751
   14748   14747   14750   14752   14748   14747   14750   14753
   14749   14747   14750   14751   14749   14747   14750   14752
   14749   14747   14750   14753   14750   14753   14756   14757
   14750   14753   14756   14758   14750   14753   14756   14759
   14751   14750   14753   14754   14751   14750   14753   14755
   14751   14750   14753   14756   14752   14750   14753   14754
   14752   14750   14753   14755   14752   14750   14753   14756
   14753   14756   14759   14760   14753   14756   14759   14761
   14753   14756   14759   14762   14754   14753   14756   14757
   14754   14753   14756   14758   14754   14753   14756   14759
   14755   14753   14756   14757   14755   14753   14756   14758
   14755   14753   14756   14759   14756   14759   14762   14763
   14756   14759   14762   14764   14756   14759   14762   14765
   14757   14756   14759   14760   14757   14756   14759   14761
   14757   14756   14759   14762   14758   14756   14759   14760
   14758   14756   14759   14761   14758   14756   14759   14762
   14759   14762   14765   14766   14759   14762   14765   14767
   14759   14762   14765   14768   14760   14759   14762   14763
   14760   14759   14762   14764   14760   14759   14762   14765
   14761   14759   14762   14763   14761   14759   14762   14764
   14761   14759   14762   14765   14762   14765   14768   14769
   14762   14765   14768   14770   14762   14765   14768   14771
   14763   14762   14765   14766   14763   14762   14765   14767
   14763   14762   14765   14768   14764   14762   14765   14766
   14764   14762   14765   14767   14764   14762   14765   14768
   14765   14768   14771   14772   14765   14768   14771   14773
   14765   14768   14771   14774   14766   14765   14768   14769
   14766   14765   14768   14770   14766   14765   14768   14771
   14767   14765   14768   14769   14767   14765   14768   14770
   14767   14765   14768   14771   14768   14771   14774   14775
   14768   14771   14774   14776   14768   14771   14774   14777
   14769   14768   14771   14772   14769   14768   14771   14773
   14769   14768   14771   14774   14770   14768   14771   14772
   14770   14768   14771   14773   14770   14768   14771   14774
   14771   14774   14777   14778   14771   14774   14777   14779
   14771   14774   14777   14780   14772   14771   14774   14775
   14772   14771   14774   14776   14772   14771   14774   14777
   14773   14771   14774   14775   14773   14771   14774   14776
   14773   14771   14774   14777   14774   14777   14780   14781
   14774   14777   14780   14782   14774   14777   14780   14783
   14775   14774   14777   14778   14775   14774   14777   14779
   14775   14774   14777   14780   14776   14774   14777   14778
   14776   14774   14777   14779   14776   14774   14777   14780
   14778   14777   14780   14781   14778   14777   14780   14782
   14778   14777   14780   14783   14779   14777   14780   14781
   14779   14777   14780   14782   14779   14777   14780   14783
   14784   14797   14800   14801   14784   14797   14800   14802
   14784   14797   14800   14807   14785   14784   14789   14790
   14785   14784   14789   14791   14785   14784   14789   14792
   14785   14784   14793   14794   14785   14784   14793   14795
   14785   14784   14793   14796   14785   14784   14797   14798
   14785   14784   14797   14799   14785   14784   14797   14800
   14789   14784   14785   14786   14789   14784   14785   14787
   14789   14784   14785   14788   14789   14784   14793   14794
   14789   14784   14793   14795   14789   14784   14793   14796
   14789   14784   14797   14798   14789   14784   14797   14799
   14789   14784   14797   14800   14793   14784   14785   14786
   14793   14784   14785   14787   14793   14784   14785   14788
   14793   14784   14789   14790   14793   14784   14789   14791
   14793   14784   14789   14792   14793   14784   14797   14798
   14793   14784   14797   14799   14793   14784   14797   14800
   14797   14784   14785   14786   14797   14784   14785   14787
   14797   14784   14785   14788   14797   14784   14789   14790
   14797   14784   14789   14791   14797   14784   14789   14792
   14797   14784   14793   14794   14797   14784   14793   14795
   14797   14784   14793   14796   14797   14800   14807   14803
   14798   14797   14800   14801   14798   14797   14800   14802
   14798   14797   14800   14807   14799   14797   14800   14801
   14799   14797   14800   14802   14799   14797   14800   14807
   14801   14800   14807   14803   14802   14800   14807   14803
   14803   14806   14808   14809   14803   14806   14808   14810
   14803   14806   14808   14811   14804   14803   14807   14800
   14804   14803   14806   14808   14805   14803   14807   14800
   14805   14803   14806   14808   14806   14803   14807   14800
   14806   14808   14811   14812   14806   14808   14811   14819
   14806   14808   14811   14813   14807   14803   14806   14808
   14808   14811   14819   14820   14808   14811   14819   14821
   14808   14811   14819   14822   14808   14811   14813   14814
   14809   14808   14811   14812   14809   14808   14811   14819
   14809   14808   14811   14813   14810   14808   14811   14812
   14810   14808   14811   14819   14810   14808   14811   14813
   14811   14819   14822   14823   14811   14813   14814   14816
   14811   14813   14814   14815   14812   14811   14819   14820
   14812   14811   14819   14821   14812   14811   14819   14822
   14812   14811   14813   14814   14813   14814   14816   14817
   14813   14814   14816   14818   14813   14814   14816   14828
   14813   14811   14819   14820   14813   14811   14819   14821
   14813   14811   14819   14822   14814   14816   14828   14829
   14814   14816   14828   14830   14814   14816   14828   14831
   14815   14814   14816   14817   14815   14814   14816   14818
   14815   14814   14816   14828   14816   14828   14831   14832
   14816   14828   14831   14833   14816   14828   14831   14834
   14817   14816   14828   14829   14817   14816   14828   14830
   14817   14816   14828   14831   14818   14816   14828   14829
   14818   14816   14828   14830   14818   14816   14828   14831
   14819   14811   14813   14814   14819   14822   14823   14825
   14819   14822   14823   14824   14820   14819   14822   14823
   14821   14819   14822   14823   14822   14823   14825   14826
   14822   14823   14825   14827   14822   14823   14825   14865
   14823   14825   14865   14866   14823   14825   14865   14867
   14823   14825   14865   14868   14824   14823   14825   14826
   14824   14823   14825   14827   14824   14823   14825   14865
   14825   14865   14868   14869   14825   14865   14868   14870
   14825   14865   14868   14871   14826   14825   14865   14866
   14826   14825   14865   14867   14826   14825   14865   14868
   14827   14825   14865   14866   14827   14825   14865   14867
   14827   14825   14865   14868   14828   14831   14834   14835
   14828   14831   14834   14836   14828   14831   14834   14837
   14829   14828   14831   14832   14829   14828   14831   14833
   14829   14828   14831   14834   14830   14828   14831   14832
   14830   14828   14831   14833   14830   14828   14831   14834
   14831   14834   14837   14838   14831   14834   14837   14839
   14831   14834   14837   14840   14832   14831   14834   14835
   14832   14831   14834   14836   14832   14831   14834   14837
   14833   14831   14834   14835   14833   14831   14834   14836
   14833   14831   14834   14837   14834   14837   14840   14841
   14834   14837   14840   14842   14834   14837   14840   14843
   14835   14834   14837   14838   14835   14834   14837   14839
   14835   14834   14837   14840   14836   14834   14837   14838
   14836   14834   14837   14839   14836   14834   14837   14840
   14837   14840   14843   14844   14837   14840   14843   14845
   14837   14840   14843   14846   14838   14837   14840   14841
   14838   14837   14840   14842   14838   14837   14840   14843
   14839   14837   14840   14841   14839   14837   14840   14842
   14839   14837   14840   14843   14840   14843   14846   14847
   14840   14843   14846   14848   14840   14843   14846   14849
   14841   14840   14843   14844   14841   14840   14843   14845
   14841   14840   14843   14846   14842   14840   14843   14844
   14842   14840   14843   14845   14842   14840   14843   14846
   14843   14846   14849   14850   14843   14846   14849   14851
   14843   14846   14849   14852   14844   14843   14846   14847
   14844   14843   14846   14848   14844   14843   14846   14849
   14845   14843   14846   14847   14845   14843   14846   14848
   14845   14843   14846   14849   14846   14849   14852   14853
   14846   14849   14852   14854   14846   14849   14852   14855
   14847   14846   14849   14850   14847   14846   14849   14851
   14847   14846   14849   14852   14848   14846   14849   14850
   14848   14846   14849   14851   14848   14846   14849   14852
   14849   14852   14855   14856   14849   14852   14855   14857
   14849   14852   14855   14858   14850   14849   14852   14853
   14850   14849   14852   14854   14850   14849   14852   14855
   14851   14849   14852   14853   14851   14849   14852   14854
   14851   14849   14852   14855   14852   14855   14858   14859
   14852   14855   14858   14860   14852   14855   14858   14861
   14853   14852   14855   14856   14853   14852   14855   14857
   14853   14852   14855   14858   14854   14852   14855   14856
   14854   14852   14855   14857   14854   14852   14855   14858
   14855   14858   14861   14862   14855   14858   14861   14863
   14855   14858   14861   14864   14856   14855   14858   14859
   14856   14855   14858   14860   14856   14855   14858   14861
   14857   14855   14858   14859   14857   14855   14858   14860
   14857   14855   14858   14861   14859   14858   14861   14862
   14859   14858   14861   14863   14859   14858   14861   14864
   14860   14858   14861   14862   14860   14858   14861   14863
   14860   14858   14861   14864   14865   14868   14871   14872
   14865   14868   14871   14873   14865   14868   14871   14874
   14866   14865   14868   14869   14866   14865   14868   14870
   14866   14865   14868   14871   14867   14865   14868   14869
   14867   14865   14868   14870   14867   14865   14868   14871
   14868   14871   14874   14875   14868   14871   14874   14876
   14868   14871   14874   14877   14869   14868   14871   14872
   14869   14868   14871   14873   14869   14868   14871   14874
   14870   14868   14871   14872   14870   14868   14871   14873
   14870   14868   14871   14874   14871   14874   14877   14878
   14871   14874   14877   14879   14871   14874   14877   14880
   14872   14871   14874   14875   14872   14871   14874   14876
   14872   14871   14874   14877   14873   14871   14874   14875
   14873   14871   14874   14876   14873   14871   14874   14877
   14874   14877   14880   14881   14874   14877   14880   14882
   14874   14877   14880   14883   14875   14874   14877   14878
   14875   14874   14877   14879   14875   14874   14877   14880
   14876   14874   14877   14878   14876   14874   14877   14879
   14876   14874   14877   14880   14877   14880   14883   14884
   14877   14880   14883   14885   14877   14880   14883   14886
   14878   14877   14880   14881   14878   14877   14880   14882
   14878   14877   14880   14883   14879   14877   14880   14881
   14879   14877   14880   14882   14879   14877   14880   14883
   14880   14883   14886   14887   14880   14883   14886   14888
   14880   14883   14886   14889   14881   14880   14883   14884
   14881   14880   14883   14885   14881   14880   14883   14886
   14882   14880   14883   14884   14882   14880   14883   14885
   14882   14880   14883   14886   14883   14886   14889   14890
   14883   14886   14889   14891   14883   14886   14889   14892
   14884   14883   14886   14887   14884   14883   14886   14888
   14884   14883   14886   14889   14885   14883   14886   14887
   14885   14883   14886   14888   14885   14883   14886   14889
   14886   14889   14892   14893   14886   14889   14892   14894
   14886   14889   14892   14895   14887   14886   14889   14890
   14887   14886   14889   14891   14887   14886   14889   14892
   14888   14886   14889   14890   14888   14886   14889   14891
   14888   14886   14889   14892   14889   14892   14895   14896
   14889   14892   14895   14897   14889   14892   14895   14898
   14890   14889   14892   14893   14890   14889   14892   14894
   14890   14889   14892   14895   14891   14889   14892   14893
   14891   14889   14892   14894   14891   14889   14892   14895
   14892   14895   14898   14899   14892   14895   14898   14900
   14892   14895   14898   14901   14893   14892   14895   14896
   14893   14892   14895   14897   14893   14892   14895   14898
   14894   14892   14895   14896   14894   14892   14895   14897
   14894   14892   14895   14898   14896   14895   14898   14899
   14896   14895   14898   14900   14896   14895   14898   14901
   14897   14895   14898   14899   14897   14895   14898   14900
   14897   14895   14898   14901   14902   14915   14918   14919
   14902   14915   14918   14920   14902   14915   14918   14925
   14903   14902   14907   14908   14903   14902   14907   14909
   14903   14902   14907   14910   14903   14902   14911   14912
   14903   14902   14911   14913   14903   14902   14911   14914
   14903   14902   14915   14916   14903   14902   14915   14917
   14903   14902   14915   14918   14907   14902   14903   14904
   14907   14902   14903   14905   14907   14902   14903   14906
   14907   14902   14911   14912   14907   14902   14911   14913
   14907   14902   14911   14914   14907   14902   14915   14916
   14907   14902   14915   14917   14907   14902   14915   14918
   14911   14902   14903   14904   14911   14902   14903   14905
   14911   14902   14903   14906   14911   14902   14907   14908
   14911   14902   14907   14909   14911   14902   14907   14910
   14911   14902   14915   14916   14911   14902   14915   14917
   14911   14902   14915   14918   14915   14902   14903   14904
   14915   14902   14903   14905   14915   14902   14903   14906
   14915   14902   14907   14908   14915   14902   14907   14909
   14915   14902   14907   14910   14915   14902   14911   14912
   14915   14902   14911   14913   14915   14902   14911   14914
   14915   14918   14925   14921   14916   14915   14918   14919
   14916   14915   14918   14920   14916   14915   14918   14925
   14917   14915   14918   14919   14917   14915   14918   14920
   14917   14915   14918   14925   14919   14918   14925   14921
   14920   14918   14925   14921   14921   14924   14926   14927
   14921   14924   14926   14928   14921   14924   14926   14929
   14922   14921   14925   14918   14922   14921   14924   14926
   14923   14921   14925   14918   14923   14921   14924   14926
   14924   14921   14925   14918   14924   14926   14929   14930
   14924   14926   14929   14937   14924   14926   14929   14931
   14925   14921   14924   14926   14926   14929   14937   14938
   14926   14929   14937   14939   14926   14929   14937   14940
   14926   14929   14931   14932   14927   14926   14929   14930
   14927   14926   14929   14937   14927   14926   14929   14931
   14928   14926   14929   14930   14928   14926   14929   14937
   14928   14926   14929   14931   14929   14937   14940   14941
   14929   14931   14932   14934   14929   14931   14932   14933
   14930   14929   14937   14938   14930   14929   14937   14939
   14930   14929   14937   14940   14930   14929   14931   14932
   14931   14932   14934   14935   14931   14932   14934   14936
   14931   14932   14934   14946   14931   14929   14937   14938
   14931   14929   14937   14939   14931   14929   14937   14940
   14932   14934   14946   14947   14932   14934   14946   14948
   14932   14934   14946   14949   14933   14932   14934   14935
   14933   14932   14934   14936   14933   14932   14934   14946
   14934   14946   14949   14950   14934   14946   14949   14951
   14934   14946   14949   14952   14935   14934   14946   14947
   14935   14934   14946   14948   14935   14934   14946   14949
   14936   14934   14946   14947   14936   14934   14946   14948
   14936   14934   14946   14949   14937   14929   14931   14932
   14937   14940   14941   14943   14937   14940   14941   14942
   14938   14937   14940   14941   14939   14937   14940   14941
   14940   14941   14943   14944   14940   14941   14943   14945
   14940   14941   14943   14983   14941   14943   14983   14984
   14941   14943   14983   14985   14941   14943   14983   14986
   14942   14941   14943   14944   14942   14941   14943   14945
   14942   14941   14943   14983   14943   14983   14986   14987
   14943   14983   14986   14988   14943   14983   14986   14989
   14944   14943   14983   14984   14944   14943   14983   14985
   14944   14943   14983   14986   14945   14943   14983   14984
   14945   14943   14983   14985   14945   14943   14983   14986
   14946   14949   14952   14953   14946   14949   14952   14954
   14946   14949   14952   14955   14947   14946   14949   14950
   14947   14946   14949   14951   14947   14946   14949   14952
   14948   14946   14949   14950   14948   14946   14949   14951
   14948   14946   14949   14952   14949   14952   14955   14956
   14949   14952   14955   14957   14949   14952   14955   14958
   14950   14949   14952   14953   14950   14949   14952   14954
   14950   14949   14952   14955   14951   14949   14952   14953
   14951   14949   14952   14954   14951   14949   14952   14955
   14952   14955   14958   14959   14952   14955   14958   14960
   14952   14955   14958   14961   14953   14952   14955   14956
   14953   14952   14955   14957   14953   14952   14955   14958
   14954   14952   14955   14956   14954   14952   14955   14957
   14954   14952   14955   14958   14955   14958   14961   14962
   14955   14958   14961   14963   14955   14958   14961   14964
   14956   14955   14958   14959   14956   14955   14958   14960
   14956   14955   14958   14961   14957   14955   14958   14959
   14957   14955   14958   14960   14957   14955   14958   14961
   14958   14961   14964   14965   14958   14961   14964   14966
   14958   14961   14964   14967   14959   14958   14961   14962
   14959   14958   14961   14963   14959   14958   14961   14964
   14960   14958   14961   14962   14960   14958   14961   14963
   14960   14958   14961   14964   14961   14964   14967   14968
   14961   14964   14967   14969   14961   14964   14967   14970
   14962   14961   14964   14965   14962   14961   14964   14966
   14962   14961   14964   14967   14963   14961   14964   14965
   14963   14961   14964   14966   14963   14961   14964   14967
   14964   14967   14970   14971   14964   14967   14970   14972
   14964   14967   14970   14973   14965   14964   14967   14968
   14965   14964   14967   14969   14965   14964   14967   14970
   14966   14964   14967   14968   14966   14964   14967   14969
   14966   14964   14967   14970   14967   14970   14973   14974
   14967   14970   14973   14975   14967   14970   14973   14976
   14968   14967   14970   14971   14968   14967   14970   14972
   14968   14967   14970   14973   14969   14967   14970   14971
   14969   14967   14970   14972   14969   14967   14970   14973
   14970   14973   14976   14977   14970   14973   14976   14978
   14970   14973   14976   14979   14971   14970   14973   14974
   14971   14970   14973   14975   14971   14970   14973   14976
   14972   14970   14973   14974   14972   14970   14973   14975
   14972   14970   14973   14976   14973   14976   14979   14980
   14973   14976   14979   14981   14973   14976   14979   14982
   14974   14973   14976   14977   14974   14973   14976   14978
   14974   14973   14976   14979   14975   14973   14976   14977
   14975   14973   14976   14978   14975   14973   14976   14979
   14977   14976   14979   14980   14977   14976   14979   14981
   14977   14976   14979   14982   14978   14976   14979   14980
   14978   14976   14979   14981   14978   14976   14979   14982
   14983   14986   14989   14990   14983   14986   14989   14991
   14983   14986   14989   14992   14984   14983   14986   14987
   14984   14983   14986   14988   14984   14983   14986   14989
   14985   14983   14986   14987   14985   14983   14986   14988
   14985   14983   14986   14989   14986   14989   14992   14993
   14986   14989   14992   14994   14986   14989   14992   14995
   14987   14986   14989   14990   14987   14986   14989   14991
   14987   14986   14989   14992   14988   14986   14989   14990
   14988   14986   14989   14991   14988   14986   14989   14992
   14989   14992   14995   14996   14989   14992   14995   14997
   14989   14992   14995   14998   14990   14989   14992   14993
   14990   14989   14992   14994   14990   14989   14992   14995
   14991   14989   14992   14993   14991   14989   14992   14994
   14991   14989   14992   14995   14992   14995   14998   14999
   14992   14995   14998   15000   14992   14995   14998   15001
   14993   14992   14995   14996   14993   14992   14995   14997
   14993   14992   14995   14998   14994   14992   14995   14996
   14994   14992   14995   14997   14994   14992   14995   14998
   14995   14998   15001   15002   14995   14998   15001   15003
   14995   14998   15001   15004   14996   14995   14998   14999
   14996   14995   14998   15000   14996   14995   14998   15001
   14997   14995   14998   14999   14997   14995   14998   15000
   14997   14995   14998   15001   14998   15001   15004   15005
   14998   15001   15004   15006   14998   15001   15004   15007
   14999   14998   15001   15002   14999   14998   15001   15003
   14999   14998   15001   15004   15000   14998   15001   15002
   15000   14998   15001   15003   15000   14998   15001   15004
   15001   15004   15007   15008   15001   15004   15007   15009
   15001   15004   15007   15010   15002   15001   15004   15005
   15002   15001   15004   15006   15002   15001   15004   15007
   15003   15001   15004   15005   15003   15001   15004   15006
   15003   15001   15004   15007   15004   15007   15010   15011
   15004   15007   15010   15012   15004   15007   15010   15013
   15005   15004   15007   15008   15005   15004   15007   15009
   15005   15004   15007   15010   15006   15004   15007   15008
   15006   15004   15007   15009   15006   15004   15007   15010
   15007   15010   15013   15014   15007   15010   15013   15015
   15007   15010   15013   15016   15008   15007   15010   15011
   15008   15007   15010   15012   15008   15007   15010   15013
   15009   15007   15010   15011   15009   15007   15010   15012
   15009   15007   15010   15013   15010   15013   15016   15017
   15010   15013   15016   15018   15010   15013   15016   15019
   15011   15010   15013   15014   15011   15010   15013   15015
   15011   15010   15013   15016   15012   15010   15013   15014
   15012   15010   15013   15015   15012   15010   15013   15016
   15014   15013   15016   15017   15014   15013   15016   15018
   15014   15013   15016   15019   15015   15013   15016   15017
   15015   15013   15016   15018   15015   15013   15016   15019
   15020   15033   15036   15037   15020   15033   15036   15038
   15020   15033   15036   15043   15021   15020   15025   15026
   15021   15020   15025   15027   15021   15020   15025   15028
   15021   15020   15029   15030   15021   15020   15029   15031
   15021   15020   15029   15032   15021   15020   15033   15034
   15021   15020   15033   15035   15021   15020   15033   15036
   15025   15020   15021   15022   15025   15020   15021   15023
   15025   15020   15021   15024   15025   15020   15029   15030
   15025   15020   15029   15031   15025   15020   15029   15032
   15025   15020   15033   15034   15025   15020   15033   15035
   15025   15020   15033   15036   15029   15020   15021   15022
   15029   15020   15021   15023   15029   15020   15021   15024
   15029   15020   15025   15026   15029   15020   15025   15027
   15029   15020   15025   15028   15029   15020   15033   15034
   15029   15020   15033   15035   15029   15020   15033   15036
   15033   15020   15021   15022   15033   15020   15021   15023
   15033   15020   15021   15024   15033   15020   15025   15026
   15033   15020   15025   15027   15033   15020   15025   15028
   15033   15020   15029   15030   15033   15020   15029   15031
   15033   15020   15029   15032   15033   15036   15043   15039
   15034   15033   15036   15037   15034   15033   15036   15038
   15034   15033   15036   15043   15035   15033   15036   15037
   15035   15033   15036   15038   15035   15033   15036   15043
   15037   15036   15043   15039   15038   15036   15043   15039
   15039   15042   15044   15045   15039   15042   15044   15046
   15039   15042   15044   15047   15040   15039   15043   15036
   15040   15039   15042   15044   15041   15039   15043   15036
   15041   15039   15042   15044   15042   15039   15043   15036
   15042   15044   15047   15048   15042   15044   15047   15055
   15042   15044   15047   15049   15043   15039   15042   15044
   15044   15047   15055   15056   15044   15047   15055   15057
   15044   15047   15055   15058   15044   15047   15049   15050
   15045   15044   15047   15048   15045   15044   15047   15055
   15045   15044   15047   15049   15046   15044   15047   15048
   15046   15044   15047   15055   15046   15044   15047   15049
   15047   15055   15058   15059   15047   15049   15050   15052
   15047   15049   15050   15051   15048   15047   15055   15056
   15048   15047   15055   15057   15048   15047   15055   15058
   15048   15047   15049   15050   15049   15050   15052   15053
   15049   15050   15052   15054   15049   15050   15052   15064
   15049   15047   15055   15056   15049   15047   15055   15057
   15049   15047   15055   15058   15050   15052   15064   15065
   15050   15052   15064   15066   15050   15052   15064   15067
   15051   15050   15052   15053   15051   15050   15052   15054
   15051   15050   15052   15064   15052   15064   15067   15068
   15052   15064   15067   15069   15052   15064   15067   15070
   15053   15052   15064   15065   15053   15052   15064   15066
   15053   15052   15064   15067   15054   15052   15064   15065
   15054   15052   15064   15066   15054   15052   15064   15067
   15055   15047   15049   15050   15055   15058   15059   15061
   15055   15058   15059   15060   15056   15055   15058   15059
   15057   15055   15058   15059   15058   15059   15061   15062
   15058   15059   15061   15063   15058   15059   15061   15101
   15059   15061   15101   15102   15059   15061   15101   15103
   15059   15061   15101   15104   15060   15059   15061   15062
   15060   15059   15061   15063   15060   15059   15061   15101
   15061   15101   15104   15105   15061   15101   15104   15106
   15061   15101   15104   15107   15062   15061   15101   15102
   15062   15061   15101   15103   15062   15061   15101   15104
   15063   15061   15101   15102   15063   15061   15101   15103
   15063   15061   15101   15104   15064   15067   15070   15071
   15064   15067   15070   15072   15064   15067   15070   15073
   15065   15064   15067   15068   15065   15064   15067   15069
   15065   15064   15067   15070   15066   15064   15067   15068
   15066   15064   15067   15069   15066   15064   15067   15070
   15067   15070   15073   15074   15067   15070   15073   15075
   15067   15070   15073   15076   15068   15067   15070   15071
   15068   15067   15070   15072   15068   15067   15070   15073
   15069   15067   15070   15071   15069   15067   15070   15072
   15069   15067   15070   15073   15070   15073   15076   15077
   15070   15073   15076   15078   15070   15073   15076   15079
   15071   15070   15073   15074   15071   15070   15073   15075
   15071   15070   15073   15076   15072   15070   15073   15074
   15072   15070   15073   15075   15072   15070   15073   15076
   15073   15076   15079   15080   15073   15076   15079   15081
   15073   15076   15079   15082   15074   15073   15076   15077
   15074   15073   15076   15078   15074   15073   15076   15079
   15075   15073   15076   15077   15075   15073   15076   15078
   15075   15073   15076   15079   15076   15079   15082   15083
   15076   15079   15082   15084   15076   15079   15082   15085
   15077   15076   15079   15080   15077   15076   15079   15081
   15077   15076   15079   15082   15078   15076   15079   15080
   15078   15076   15079   15081   15078   15076   15079   15082
   15079   15082   15085   15086   15079   15082   15085   15087
   15079   15082   15085   15088   15080   15079   15082   15083
   15080   15079   15082   15084   15080   15079   15082   15085
   15081   15079   15082   15083   15081   15079   15082   15084
   15081   15079   15082   15085   15082   15085   15088   15089
   15082   15085   15088   15090   15082   15085   15088   15091
   15083   15082   15085   15086   15083   15082   15085   15087
   15083   15082   15085   15088   15084   15082   15085   15086
   15084   15082   15085   15087   15084   15082   15085   15088
   15085   15088   15091   15092   15085   15088   15091   15093
   15085   15088   15091   15094   15086   15085   15088   15089
   15086   15085   15088   15090   15086   15085   15088   15091
   15087   15085   15088   15089   15087   15085   15088   15090
   15087   15085   15088   15091   15088   15091   15094   15095
   15088   15091   15094   15096   15088   15091   15094   15097
   15089   15088   15091   15092   15089   15088   15091   15093
   15089   15088   15091   15094   15090   15088   15091   15092
   15090   15088   15091   15093   15090   15088   15091   15094
   15091   15094   15097   15098   15091   15094   15097   15099
   15091   15094   15097   15100   15092   15091   15094   15095
   15092   15091   15094   15096   15092   15091   15094   15097
   15093   15091   15094   15095   15093   15091   15094   15096
   15093   15091   15094   15097   15095   15094   15097   15098
   15095   15094   15097   15099   15095   15094   15097   15100
   15096   15094   15097   15098   15096   15094   15097   15099
   15096   15094   15097   15100   15101   15104   15107   15108
   15101   15104   15107   15109   15101   15104   15107   15110
   15102   15101   15104   15105   15102   15101   15104   15106
   15102   15101   15104   15107   15103   15101   15104   15105
   15103   15101   15104   15106   15103   15101   15104   15107
   15104   15107   15110   15111   15104   15107   15110   15112
   15104   15107   15110   15113   15105   15104   15107   15108
   15105   15104   15107   15109   15105   15104   15107   15110
   15106   15104   15107   15108   15106   15104   15107   15109
   15106   15104   15107   15110   15107   15110   15113   15114
   15107   15110   15113   15115   15107   15110   15113   15116
   15108   15107   15110   15111   15108   15107   15110   15112
   15108   15107   15110   15113   15109   15107   15110   15111
   15109   15107   15110   15112   15109   15107   15110   15113
   15110   15113   15116   15117   15110   15113   15116   15118
   15110   15113   15116   15119   15111   15110   15113   15114
   15111   15110   15113   15115   15111   15110   15113   15116
   15112   15110   15113   15114   15112   15110   15113   15115
   15112   15110   15113   15116   15113   15116   15119   15120
   15113   15116   15119   15121   15113   15116   15119   15122
   15114   15113   15116   15117   15114   15113   15116   15118
   15114   15113   15116   15119   15115   15113   15116   15117
   15115   15113   15116   15118   15115   15113   15116   15119
   15116   15119   15122   15123   15116   15119   15122   15124
   15116   15119   15122   15125   15117   15116   15119   15120
   15117   15116   15119   15121   15117   15116   15119   15122
   15118   15116   15119   15120   15118   15116   15119   15121
   15118   15116   15119   15122   15119   15122   15125   15126
   15119   15122   15125   15127   15119   15122   15125   15128
   15120   15119   15122   15123   15120   15119   15122   15124
   15120   15119   15122   15125   15121   15119   15122   15123
   15121   15119   15122   15124   15121   15119   15122   15125
   15122   15125   15128   15129   15122   15125   15128   15130
   15122   15125   15128   15131   15123   15122   15125   15126
   15123   15122   15125   15127   15123   15122   15125   15128
   15124   15122   15125   15126   15124   15122   15125   15127
   15124   15122   15125   15128   15125   15128   15131   15132
   15125   15128   15131   15133   15125   15128   15131   15134
   15126   15125   15128   15129   15126   15125   15128   15130
   15126   15125   15128   15131   15127   15125   15128   15129
   15127   15125   15128   15130   15127   15125   15128   15131
   15128   15131   15134   15135   15128   15131   15134   15136
   15128   15131   15134   15137   15129   15128   15131   15132
   15129   15128   15131   15133   15129   15128   15131   15134
   15130   15128   15131   15132   15130   15128   15131   15133
   15130   15128   15131   15134   15132   15131   15134   15135
   15132   15131   15134   15136   15132   15131   15134   15137
   15133   15131   15134   15135   15133   15131   15134   15136
   15133   15131   15134   15137   15138   15151   15154   15155
   15138   15151   15154   15156   15138   15151   15154   15161
   15139   15138   15143   15144   15139   15138   15143   15145
   15139   15138   15143   15146   15139   15138   15147   15148
   15139   15138   15147   15149   15139   15138   15147   15150
   15139   15138   15151   15152   15139   15138   15151   15153
   15139   15138   15151   15154   15143   15138   15139   15140
   15143   15138   15139   15141   15143   15138   15139   15142
   15143   15138   15147   15148   15143   15138   15147   15149
   15143   15138   15147   15150   15143   15138   15151   15152
   15143   15138   15151   15153   15143   15138   15151   15154
   15147   15138   15139   15140   15147   15138   15139   15141
   15147   15138   15139   15142   15147   15138   15143   15144
   15147   15138   15143   15145   15147   15138   15143   15146
   15147   15138   15151   15152   15147   15138   15151   15153
   15147   15138   15151   15154   15151   15138   15139   15140
   15151   15138   15139   15141   15151   15138   15139   15142
   15151   15138   15143   15144   15151   15138   15143   15145
   15151   15138   15143   15146   15151   15138   15147   15148
   15151   15138   15147   15149   15151   15138   15147   15150
   15151   15154   15161   15157   15152   15151   15154   15155
   15152   15151   15154   15156   15152   15151   15154   15161
   15153   15151   15154   15155   15153   15151   15154   15156
   15153   15151   15154   15161   15155   15154   15161   15157
   15156   15154   15161   15157   15157   15160   15162   15163
   15157   15160   15162   15164   15157   15160   15162   15165
   15158   15157   15161   15154   15158   15157   15160   15162
   15159   15157   15161   15154   15159   15157   15160   15162
   15160   15157   15161   15154   15160   15162   15165   15166
   15160   15162   15165   15173   15160   15162   15165   15167
   15161   15157   15160   15162   15162   15165   15173   15174
   15162   15165   15173   15175   15162   15165   15173   15176
   15162   15165   15167   15168   15163   15162   15165   15166
   15163   15162   15165   15173   15163   15162   15165   15167
   15164   15162   15165   15166   15164   15162   15165   15173
   15164   15162   15165   15167   15165   15173   15176   15177
   15165   15167   15168   15170   15165   15167   15168   15169
   15166   15165   15173   15174   15166   15165   15173   15175
   15166   15165   15173   15176   15166   15165   15167   15168
   15167   15168   15170   15171   15167   15168   15170   15172
   15167   15168   15170   15182   15167   15165   15173   15174
   15167   15165   15173   15175   15167   15165   15173   15176
   15168   15170   15182   15183   15168   15170   15182   15184
   15168   15170   15182   15185   15169   15168   15170   15171
   15169   15168   15170   15172   15169   15168   15170   15182
   15170   15182   15185   15186   15170   15182   15185   15187
   15170   15182   15185   15188   15171   15170   15182   15183
   15171   15170   15182   15184   15171   15170   15182   15185
   15172   15170   15182   15183   15172   15170   15182   15184
   15172   15170   15182   15185   15173   15165   15167   15168
   15173   15176   15177   15179   15173   15176   15177   15178
   15174   15173   15176   15177   15175   15173   15176   15177
   15176   15177   15179   15180   15176   15177   15179   15181
   15176   15177   15179   15219   15177   15179   15219   15220
   15177   15179   15219   15221   15177   15179   15219   15222
   15178   15177   15179   15180   15178   15177   15179   15181
   15178   15177   15179   15219   15179   15219   15222   15223
   15179   15219   15222   15224   15179   15219   15222   15225
   15180   15179   15219   15220   15180   15179   15219   15221
   15180   15179   15219   15222   15181   15179   15219   15220
   15181   15179   15219   15221   15181   15179   15219   15222
   15182   15185   15188   15189   15182   15185   15188   15190
   15182   15185   15188   15191   15183   15182   15185   15186
   15183   15182   15185   15187   15183   15182   15185   15188
   15184   15182   15185   15186   15184   15182   15185   15187
   15184   15182   15185   15188   15185   15188   15191   15192
   15185   15188   15191   15193   15185   15188   15191   15194
   15186   15185   15188   15189   15186   15185   15188   15190
   15186   15185   15188   15191   15187   15185   15188   15189
   15187   15185   15188   15190   15187   15185   15188   15191
   15188   15191   15194   15195   15188   15191   15194   15196
   15188   15191   15194   15197   15189   15188   15191   15192
   15189   15188   15191   15193   15189   15188   15191   15194
   15190   15188   15191   15192   15190   15188   15191   15193
   15190   15188   15191   15194   15191   15194   15197   15198
   15191   15194   15197   15199   15191   15194   15197   15200
   15192   15191   15194   15195   15192   15191   15194   15196
   15192   15191   15194   15197   15193   15191   15194   15195
   15193   15191   15194   15196   15193   15191   15194   15197
   15194   15197   15200   15201   15194   15197   15200   15202
   15194   15197   15200   15203   15195   15194   15197   15198
   15195   15194   15197   15199   15195   15194   15197   15200
   15196   15194   15197   15198   15196   15194   15197   15199
   15196   15194   15197   15200   15197   15200   15203   15204
   15197   15200   15203   15205   15197   15200   15203   15206
   15198   15197   15200   15201   15198   15197   15200   15202
   15198   15197   15200   15203   15199   15197   15200   15201
   15199   15197   15200   15202   15199   15197   15200   15203
   15200   15203   15206   15207   15200   15203   15206   15208
   15200   15203   15206   15209   15201   15200   15203   15204
   15201   15200   15203   15205   15201   15200   15203   15206
   15202   15200   15203   15204   15202   15200   15203   15205
   15202   15200   15203   15206   15203   15206   15209   15210
   15203   15206   15209   15211   15203   15206   15209   15212
   15204   15203   15206   15207   15204   15203   15206   15208
   15204   15203   15206   15209   15205   15203   15206   15207
   15205   15203   15206   15208   15205   15203   15206   15209
   15206   15209   15212   15213   15206   15209   15212   15214
   15206   15209   15212   15215   15207   15206   15209   15210
   15207   15206   15209   15211   15207   15206   15209   15212
   15208   15206   15209   15210   15208   15206   15209   15211
   15208   15206   15209   15212   15209   15212   15215   15216
   15209   15212   15215   15217   15209   15212   15215   15218
   15210   15209   15212   15213   15210   15209   15212   15214
   15210   15209   15212   15215   15211   15209   15212   15213
   15211   15209   15212   15214   15211   15209   15212   15215
   15213   15212   15215   15216   15213   15212   15215   15217
   15213   15212   15215   15218   15214   15212   15215   15216
   15214   15212   15215   15217   15214   15212   15215   15218
   15219   15222   15225   15226   15219   15222   15225   15227
   15219   15222   15225   15228   15220   15219   15222   15223
   15220   15219   15222   15224   15220   15219   15222   15225
   15221   15219   15222   15223   15221   15219   15222   15224
   15221   15219   15222   15225   15222   15225   15228   15229
   15222   15225   15228   15230   15222   15225   15228   15231
   15223   15222   15225   15226   15223   15222   15225   15227
   15223   15222   15225   15228   15224   15222   15225   15226
   15224   15222   15225   15227   15224   15222   15225   15228
   15225   15228   15231   15232   15225   15228   15231   15233
   15225   15228   15231   15234   15226   15225   15228   15229
   15226   15225   15228   15230   15226   15225   15228   15231
   15227   15225   15228   15229   15227   15225   15228   15230
   15227   15225   15228   15231   15228   15231   15234   15235
   15228   15231   15234   15236   15228   15231   15234   15237
   15229   15228   15231   15232   15229   15228   15231   15233
   15229   15228   15231   15234   15230   15228   15231   15232
   15230   15228   15231   15233   15230   15228   15231   15234
   15231   15234   15237   15238   15231   15234   15237   15239
   15231   15234   15237   15240   15232   15231   15234   15235
   15232   15231   15234   15236   15232   15231   15234   15237
   15233   15231   15234   15235   15233   15231   15234   15236
   15233   15231   15234   15237   15234   15237   15240   15241
   15234   15237   15240   15242   15234   15237   15240   15243
   15235   15234   15237   15238   15235   15234   15237   15239
   15235   15234   15237   15240   15236   15234   15237   15238
   15236   15234   15237   15239   15236   15234   15237   15240
   15237   15240   15243   15244   15237   15240   15243   15245
   15237   15240   15243   15246   15238   15237   15240   15241
   15238   15237   15240   15242   15238   15237   15240   15243
   15239   15237   15240   15241   15239   15237   15240   15242
   15239   15237   15240   15243   15240   15243   15246   15247
   15240   15243   15246   15248   15240   15243   15246   15249
   15241   15240   15243   15244   15241   15240   15243   15245
   15241   15240   15243   15246   15242   15240   15243   15244
   15242   15240   15243   15245   15242   15240   15243   15246
   15243   15246   15249   15250   15243   15246   15249   15251
   15243   15246   15249   15252   15244   15243   15246   15247
   15244   15243   15246   15248   15244   15243   15246   15249
   15245   15243   15246   15247   15245   15243   15246   15248
   15245   15243   15246   15249   15246   15249   15252   15253
   15246   15249   15252   15254   15246   15249   15252   15255
   15247   15246   15249   15250   15247   15246   15249   15251
   15247   15246   15249   15252   15248   15246   15249   15250
   15248   15246   15249   15251   15248   15246   15249   15252
   15250   15249   15252   15253   15250   15249   15252   15254
   15250   15249   15252   15255   15251   15249   15252   15253
   15251   15249   15252   15254   15251   15249   15252   15255
   15256   15269   15272   15273   15256   15269   15272   15274
   15256   15269   15272   15279   15257   15256   15261   15262
   15257   15256   15261   15263   15257   15256   15261   15264
   15257   15256   15265   15266   15257   15256   15265   15267
   15257   15256   15265   15268   15257   15256   15269   15270
   15257   15256   15269   15271   15257   15256   15269   15272
   15261   15256   15257   15258   15261   15256   15257   15259
   15261   15256   15257   15260   15261   15256   15265   15266
   15261   15256   15265   15267   15261   15256   15265   15268
   15261   15256   15269   15270   15261   15256   15269   15271
   15261   15256   15269   15272   15265   15256   15257   15258
   15265   15256   15257   15259   15265   15256   15257   15260
   15265   15256   15261   15262   15265   15256   15261   15263
   15265   15256   15261   15264   15265   15256   15269   15270
   15265   15256   15269   15271   15265   15256   15269   15272
   15269   15256   15257   15258   15269   15256   15257   15259
   15269   15256   15257   15260   15269   15256   15261   15262
   15269   15256   15261   15263   15269   15256   15261   15264
   15269   15256   15265   15266   15269   15256   15265   15267
   15269   15256   15265   15268   15269   15272   15279   15275
   15270   15269   15272   15273   15270   15269   15272   15274
   15270   15269   15272   15279   15271   15269   15272   15273
   15271   15269   15272   15274   15271   15269   15272   15279
   15273   15272   15279   15275   15274   15272   15279   15275
   15275   15278   15280   15281   15275   15278   15280   15282
   15275   15278   15280   15283   15276   15275   15279   15272
   15276   15275   15278   15280   15277   15275   15279   15272
   15277   15275   15278   15280   15278   15275   15279   15272
   15278   15280   15283   15284   15278   15280   15283   15291
   15278   15280   15283   15285   15279   15275   15278   15280
   15280   15283   15291   15292   15280   15283   15291   15293
   15280   15283   15291   15294   15280   15283   15285   15286
   15281   15280   15283   15284   15281   15280   15283   15291
   15281   15280   15283   15285   15282   15280   15283   15284
   15282   15280   15283   15291   15282   15280   15283   15285
   15283   15291   15294   15295   15283   15285   15286   15288
   15283   15285   15286   15287   15284   15283   15291   15292
   15284   15283   15291   15293   15284   15283   15291   15294
   15284   15283   15285   15286   15285   15286   15288   15289
   15285   15286   15288   15290   15285   15286   15288   15300
   15285   15283   15291   15292   15285   15283   15291   15293
   15285   15283   15291   15294   15286   15288   15300   15301
   15286   15288   15300   15302   15286   15288   15300   15303
   15287   15286   15288   15289   15287   15286   15288   15290
   15287   15286   15288   15300   15288   15300   15303   15304
   15288   15300   15303   15305   15288   15300   15303   15306
   15289   15288   15300   15301   15289   15288   15300   15302
   15289   15288   15300   15303   15290   15288   15300   15301
   15290   15288   15300   15302   15290   15288   15300   15303
   15291   15283   15285   15286   15291   15294   15295   15297
   15291   15294   15295   15296   15292   15291   15294   15295
   15293   15291   15294   15295   15294   15295   15297   15298
   15294   15295   15297   15299   15294   15295   15297   15337
   15295   15297   15337   15338   15295   15297   15337   15339
   15295   15297   15337   15340   15296   15295   15297   15298
   15296   15295   15297   15299   15296   15295   15297   15337
   15297   15337   15340   15341   15297   15337   15340   15342
   15297   15337   15340   15343   15298   15297   15337   15338
   15298   15297   15337   15339   15298   15297   15337   15340
   15299   15297   15337   15338   15299   15297   15337   15339
   15299   15297   15337   15340   15300   15303   15306   15307
   15300   15303   15306   15308   15300   15303   15306   15309
   15301   15300   15303   15304   15301   15300   15303   15305
   15301   15300   15303   15306   15302   15300   15303   15304
   15302   15300   15303   15305   15302   15300   15303   15306
   15303   15306   15309   15310   15303   15306   15309   15311
   15303   15306   15309   15312   15304   15303   15306   15307
   15304   15303   15306   15308   15304   15303   15306   15309
   15305   15303   15306   15307   15305   15303   15306   15308
   15305   15303   15306   15309   15306   15309   15312   15313
   15306   15309   15312   15314   15306   15309   15312   15315
   15307   15306   15309   15310   15307   15306   15309   15311
   15307   15306   15309   15312   15308   15306   15309   15310
   15308   15306   15309   15311   15308   15306   15309   15312
   15309   15312   15315   15316   15309   15312   15315   15317
   15309   15312   15315   15318   15310   15309   15312   15313
   15310   15309   15312   15314   15310   15309   15312   15315
   15311   15309   15312   15313   15311   15309   15312   15314
   15311   15309   15312   15315   15312   15315   15318   15319
   15312   15315   15318   15320   15312   15315   15318   15321
   15313   15312   15315   15316   15313   15312   15315   15317
   15313   15312   15315   15318   15314   15312   15315   15316
   15314   15312   15315   15317   15314   15312   15315   15318
   15315   15318   15321   15322   15315   15318   15321   15323
   15315   15318   15321   15324   15316   15315   15318   15319
   15316   15315   15318   15320   15316   15315   15318   15321
   15317   15315   15318   15319   15317   15315   15318   15320
   15317   15315   15318   15321   15318   15321   15324   15325
   15318   15321   15324   15326   15318   15321   15324   15327
   15319   15318   15321   15322   15319   15318   15321   15323
   15319   15318   15321   15324   15320   15318   15321   15322
   15320   15318   15321   15323   15320   15318   15321   15324
   15321   15324   15327   15328   15321   15324   15327   15329
   15321   15324   15327   15330   15322   15321   15324   15325
   15322   15321   15324   15326   15322   15321   15324   15327
   15323   15321   15324   15325   15323   15321   15324   15326
   15323   15321   15324   15327   15324   15327   15330   15331
   15324   15327   15330   15332   15324   15327   15330   15333
   15325   15324   15327   15328   15325   15324   15327   15329
   15325   15324   15327   15330   15326   15324   15327   15328
   15326   15324   15327   15329   15326   15324   15327   15330
   15327   15330   15333   15334   15327   15330   15333   15335
   15327   15330   15333   15336   15328   15327   15330   15331
   15328   15327   15330   15332   15328   15327   15330   15333
   15329   15327   15330   15331   15329   15327   15330   15332
   15329   15327   15330   15333   15331   15330   15333   15334
   15331   15330   15333   15335   15331   15330   15333   15336
   15332   15330   15333   15334   15332   15330   15333   15335
   15332   15330   15333   15336   15337   15340   15343   15344
   15337   15340   15343   15345   15337   15340   15343   15346
   15338   15337   15340   15341   15338   15337   15340   15342
   15338   15337   15340   15343   15339   15337   15340   15341
   15339   15337   15340   15342   15339   15337   15340   15343
   15340   15343   15346   15347   15340   15343   15346   15348
   15340   15343   15346   15349   15341   15340   15343   15344
   15341   15340   15343   15345   15341   15340   15343   15346
   15342   15340   15343   15344   15342   15340   15343   15345
   15342   15340   15343   15346   15343   15346   15349   15350
   15343   15346   15349   15351   15343   15346   15349   15352
   15344   15343   15346   15347   15344   15343   15346   15348
   15344   15343   15346   15349   15345   15343   15346   15347
   15345   15343   15346   15348   15345   15343   15346   15349
   15346   15349   15352   15353   15346   15349   15352   15354
   15346   15349   15352   15355   15347   15346   15349   15350
   15347   15346   15349   15351   15347   15346   15349   15352
   15348   15346   15349   15350   15348   15346   15349   15351
   15348   15346   15349   15352   15349   15352   15355   15356
   15349   15352   15355   15357   15349   15352   15355   15358
   15350   15349   15352   15353   15350   15349   15352   15354
   15350   15349   15352   15355   15351   15349   15352   15353
   15351   15349   15352   15354   15351   15349   15352   15355
   15352   15355   15358   15359   15352   15355   15358   15360
   15352   15355   15358   15361   15353   15352   15355   15356
   15353   15352   15355   15357   15353   15352   15355   15358
   15354   15352   15355   15356   15354   15352   15355   15357
   15354   15352   15355   15358   15355   15358   15361   15362
   15355   15358   15361   15363   15355   15358   15361   15364
   15356   15355   15358   15359   15356   15355   15358   15360
   15356   15355   15358   15361   15357   15355   15358   15359
   15357   15355   15358   15360   15357   15355   15358   15361
   15358   15361   15364   15365   15358   15361   15364   15366
   15358   15361   15364   15367   15359   15358   15361   15362
   15359   15358   15361   15363   15359   15358   15361   15364
   15360   15358   15361   15362   15360   15358   15361   15363
   15360   15358   15361   15364   15361   15364   15367   15368
   15361   15364   15367   15369   15361   15364   15367   15370
   15362   15361   15364   15365   15362   15361   15364   15366
   15362   15361   15364   15367   15363   15361   15364   15365
   15363   15361   15364   15366   15363   15361   15364   15367
   15364   15367   15370   15371   15364   15367   15370   15372
   15364   15367   15370   15373   15365   15364   15367   15368
   15365   15364   15367   15369   15365   15364   15367   15370
   15366   15364   15367   15368   15366   15364   15367   15369
   15366   15364   15367   15370   15368   15367   15370   15371
   15368   15367   15370   15372   15368   15367   15370   15373
   15369   15367   15370   15371   15369   15367   15370   15372
   15369   15367   15370   15373   15374   15387   15390   15391
   15374   15387   15390   15392   15374   15387   15390   15397
   15375   15374   15379   15380   15375   15374   15379   15381
   15375   15374   15379   15382   15375   15374   15383   15384
   15375   15374   15383   15385   15375   15374   15383   15386
   15375   15374   15387   15388   15375   15374   15387   15389
   15375   15374   15387   15390   15379   15374   15375   15376
   15379   15374   15375   15377   15379   15374   15375   15378
   15379   15374   15383   15384   15379   15374   15383   15385
   15379   15374   15383   15386   15379   15374   15387   15388
   15379   15374   15387   15389   15379   15374   15387   15390
   15383   15374   15375   15376   15383   15374   15375   15377
   15383   15374   15375   15378   15383   15374   15379   15380
   15383   15374   15379   15381   15383   15374   15379   15382
   15383   15374   15387   15388   15383   15374   15387   15389
   15383   15374   15387   15390   15387   15374   15375   15376
   15387   15374   15375   15377   15387   15374   15375   15378
   15387   15374   15379   15380   15387   15374   15379   15381
   15387   15374   15379   15382   15387   15374   15383   15384
   15387   15374   15383   15385   15387   15374   15383   15386
   15387   15390   15397   15393   15388   15387   15390   15391
   15388   15387   15390   15392   15388   15387   15390   15397
   15389   15387   15390   15391   15389   15387   15390   15392
   15389   15387   15390   15397   15391   15390   15397   15393
   15392   15390   15397   15393   15393   15396   15398   15399
   15393   15396   15398   15400   15393   15396   15398   15401
   15394   15393   15397   15390   15394   15393   15396   15398
   15395   15393   15397   15390   15395   15393   15396   15398
   15396   15393   15397   15390   15396   15398   15401   15402
   15396   15398   15401   15409   15396   15398   15401   15403
   15397   15393   15396   15398   15398   15401   15409   15410
   15398   15401   15409   15411   15398   15401   15409   15412
   15398   15401   15403   15404   15399   15398   15401   15402
   15399   15398   15401   15409   15399   15398   15401   15403
   15400   15398   15401   15402   15400   15398   15401   15409
   15400   15398   15401   15403   15401   15409   15412   15413
   15401   15403   15404   15406   15401   15403   15404   15405
   15402   15401   15409   15410   15402   15401   15409   15411
   15402   15401   15409   15412   15402   15401   15403   15404
   15403   15404   15406   15407   15403   15404   15406   15408
   15403   15404   15406   15418   15403   15401   15409   15410
   15403   15401   15409   15411   15403   15401   15409   15412
   15404   15406   15418   15419   15404   15406   15418   15420
   15404   15406   15418   15421   15405   15404   15406   15407
   15405   15404   15406   15408   15405   15404   15406   15418
   15406   15418   15421   15422   15406   15418   15421   15423
   15406   15418   15421   15424   15407   15406   15418   15419
   15407   15406   15418   15420   15407   15406   15418   15421
   15408   15406   15418   15419   15408   15406   15418   15420
   15408   15406   15418   15421   15409   15401   15403   15404
   15409   15412   15413   15415   15409   15412   15413   15414
   15410   15409   15412   15413   15411   15409   15412   15413
   15412   15413   15415   15416   15412   15413   15415   15417
   15412   15413   15415   15455   15413   15415   15455   15456
   15413   15415   15455   15457   15413   15415   15455   15458
   15414   15413   15415   15416   15414   15413   15415   15417
   15414   15413   15415   15455   15415   15455   15458   15459
   15415   15455   15458   15460   15415   15455   15458   15461
   15416   15415   15455   15456   15416   15415   15455   15457
   15416   15415   15455   15458   15417   15415   15455   15456
   15417   15415   15455   15457   15417   15415   15455   15458
   15418   15421   15424   15425   15418   15421   15424   15426
   15418   15421   15424   15427   15419   15418   15421   15422
   15419   15418   15421   15423   15419   15418   15421   15424
   15420   15418   15421   15422   15420   15418   15421   15423
   15420   15418   15421   15424   15421   15424   15427   15428
   15421   15424   15427   15429   15421   15424   15427   15430
   15422   15421   15424   15425   15422   15421   15424   15426
   15422   15421   15424   15427   15423   15421   15424   15425
   15423   15421   15424   15426   15423   15421   15424   15427
   15424   15427   15430   15431   15424   15427   15430   15432
   15424   15427   15430   15433   15425   15424   15427   15428
   15425   15424   15427   15429   15425   15424   15427   15430
   15426   15424   15427   15428   15426   15424   15427   15429
   15426   15424   15427   15430   15427   15430   15433   15434
   15427   15430   15433   15435   15427   15430   15433   15436
   15428   15427   15430   15431   15428   15427   15430   15432
   15428   15427   15430   15433   15429   15427   15430   15431
   15429   15427   15430   15432   15429   15427   15430   15433
   15430   15433   15436   15437   15430   15433   15436   15438
   15430   15433   15436   15439   15431   15430   15433   15434
   15431   15430   15433   15435   15431   15430   15433   15436
   15432   15430   15433   15434   15432   15430   15433   15435
   15432   15430   15433   15436   15433   15436   15439   15440
   15433   15436   15439   15441   15433   15436   15439   15442
   15434   15433   15436   15437   15434   15433   15436   15438
   15434   15433   15436   15439   15435   15433   15436   15437
   15435   15433   15436   15438   15435   15433   15436   15439
   15436   15439   15442   15443   15436   15439   15442   15444
   15436   15439   15442   15445   15437   15436   15439   15440
   15437   15436   15439   15441   15437   15436   15439   15442
   15438   15436   15439   15440   15438   15436   15439   15441
   15438   15436   15439   15442   15439   15442   15445   15446
   15439   15442   15445   15447   15439   15442   15445   15448
   15440   15439   15442   15443   15440   15439   15442   15444
   15440   15439   15442   15445   15441   15439   15442   15443
   15441   15439   15442   15444   15441   15439   15442   15445
   15442   15445   15448   15449   15442   15445   15448   15450
   15442   15445   15448   15451   15443   15442   15445   15446
   15443   15442   15445   15447   15443   15442   15445   15448
   15444   15442   15445   15446   15444   15442   15445   15447
   15444   15442   15445   15448   15445   15448   15451   15452
   15445   15448   15451   15453   15445   15448   15451   15454
   15446   15445   15448   15449   15446   15445   15448   15450
   15446   15445   15448   15451   15447   15445   15448   15449
   15447   15445   15448   15450   15447   15445   15448   15451
   15449   15448   15451   15452   15449   15448   15451   15453
   15449   15448   15451   15454   15450   15448   15451   15452
   15450   15448   15451   15453   15450   15448   15451   15454
   15455   15458   15461   15462   15455   15458   15461   15463
   15455   15458   15461   15464   15456   15455   15458   15459
   15456   15455   15458   15460   15456   15455   15458   15461
   15457   15455   15458   15459   15457   15455   15458   15460
   15457   15455   15458   15461   15458   15461   15464   15465
   15458   15461   15464   15466   15458   15461   15464   15467
   15459   15458   15461   15462   15459   15458   15461   15463
   15459   15458   15461   15464   15460   15458   15461   15462
   15460   15458   15461   15463   15460   15458   15461   15464
   15461   15464   15467   15468   15461   15464   15467   15469
   15461   15464   15467   15470   15462   15461   15464   15465
   15462   15461   15464   15466   15462   15461   15464   15467
   15463   15461   15464   15465   15463   15461   15464   15466
   15463   15461   15464   15467   15464   15467   15470   15471
   15464   15467   15470   15472   15464   15467   15470   15473
   15465   15464   15467   15468   15465   15464   15467   15469
   15465   15464   15467   15470   15466   15464   15467   15468
   15466   15464   15467   15469   15466   15464   15467   15470
   15467   15470   15473   15474   15467   15470   15473   15475
   15467   15470   15473   15476   15468   15467   15470   15471
   15468   15467   15470   15472   15468   15467   15470   15473
   15469   15467   15470   15471   15469   15467   15470   15472
   15469   15467   15470   15473   15470   15473   15476   15477
   15470   15473   15476   15478   15470   15473   15476   15479
   15471   15470   15473   15474   15471   15470   15473   15475
   15471   15470   15473   15476   15472   15470   15473   15474
   15472   15470   15473   15475   15472   15470   15473   15476
   15473   15476   15479   15480   15473   15476   15479   15481
   15473   15476   15479   15482   15474   15473   15476   15477
   15474   15473   15476   15478   15474   15473   15476   15479
   15475   15473   15476   15477   15475   15473   15476   15478
   15475   15473   15476   15479   15476   15479   15482   15483
   15476   15479   15482   15484   15476   15479   15482   15485
   15477   15476   15479   15480   15477   15476   15479   15481
   15477   15476   15479   15482   15478   15476   15479   15480
   15478   15476   15479   15481   15478   15476   15479   15482
   15479   15482   15485   15486   15479   15482   15485   15487
   15479   15482   15485   15488   15480   15479   15482   15483
   15480   15479   15482   15484   15480   15479   15482   15485
   15481   15479   15482   15483   15481   15479   15482   15484
   15481   15479   15482   15485   15482   15485   15488   15489
   15482   15485   15488   15490   15482   15485   15488   15491
   15483   15482   15485   15486   15483   15482   15485   15487
   15483   15482   15485   15488   15484   15482   15485   15486
   15484   15482   15485   15487   15484   15482   15485   15488
   15486   15485   15488   15489   15486   15485   15488   15490
   15486   15485   15488   15491   15487   15485   15488   15489
   15487   15485   15488   15490   15487   15485   15488   15491
   15492   15505   15508   15509   15492   15505   15508   15510
   15492   15505   15508   15515   15493   15492   15497   15498
   15493   15492   15497   15499   15493   15492   15497   15500
   15493   15492   15501   15502   15493   15492   15501   15503
   15493   15492   15501   15504   15493   15492   15505   15506
   15493   15492   15505   15507   15493   15492   15505   15508
   15497   15492   15493   15494   15497   15492   15493   15495
   15497   15492   15493   15496   15497   15492   15501   15502
   15497   15492   15501   15503   15497   15492   15501   15504
   15497   15492   15505   15506   15497   15492   15505   15507
   15497   15492   15505   15508   15501   15492   15493   15494
   15501   15492   15493   15495   15501   15492   15493   15496
   15501   15492   15497   15498   15501   15492   15497   15499
   15501   15492   15497   15500   15501   15492   15505   15506
   15501   15492   15505   15507   15501   15492   15505   15508
   15505   15492   15493   15494   15505   15492   15493   15495
   15505   15492   15493   15496   15505   15492   15497   15498
   15505   15492   15497   15499   15505   15492   15497   15500
   15505   15492   15501   15502   15505   15492   15501   15503
   15505   15492   15501   15504   15505   15508   15515   15511
   15506   15505   15508   15509   15506   15505   15508   15510
   15506   15505   15508   15515   15507   15505   15508   15509
   15507   15505   15508   15510   15507   15505   15508   15515
   15509   15508   15515   15511   15510   15508   15515   15511
   15511   15514   15516   15517   15511   15514   15516   15518
   15511   15514   15516   15519   15512   15511   15515   15508
   15512   15511   15514   15516   15513   15511   15515   15508
   15513   15511   15514   15516   15514   15511   15515   15508
   15514   15516   15519   15520   15514   15516   15519   15527
   15514   15516   15519   15521   15515   15511   15514   15516
   15516   15519   15527   15528   15516   15519   15527   15529
   15516   15519   15527   15530   15516   15519   15521   15522
   15517   15516   15519   15520   15517   15516   15519   15527
   15517   15516   15519   15521   15518   15516   15519   15520
   15518   15516   15519   15527   15518   15516   15519   15521
   15519   15527   15530   15531   15519   15521   15522   15524
   15519   15521   15522   15523   15520   15519   15527   15528
   15520   15519   15527   15529   15520   15519   15527   15530
   15520   15519   15521   15522   15521   15522   15524   15525
   15521   15522   15524   15526   15521   15522   15524   15536
   15521   15519   15527   15528   15521   15519   15527   15529
   15521   15519   15527   15530   15522   15524   15536   15537
   15522   15524   15536   15538   15522   15524   15536   15539
   15523   15522   15524   15525   15523   15522   15524   15526
   15523   15522   15524   15536   15524   15536   15539   15540
   15524   15536   15539   15541   15524   15536   15539   15542
   15525   15524   15536   15537   15525   15524   15536   15538
   15525   15524   15536   15539   15526   15524   15536   15537
   15526   15524   15536   15538   15526   15524   15536   15539
   15527   15519   15521   15522   15527   15530   15531   15533
   15527   15530   15531   15532   15528   15527   15530   15531
   15529   15527   15530   15531   15530   15531   15533   15534
   15530   15531   15533   15535   15530   15531   15533   15573
   15531   15533   15573   15574   15531   15533   15573   15575
   15531   15533   15573   15576   15532   15531   15533   15534
   15532   15531   15533   15535   15532   15531   15533   15573
   15533   15573   15576   15577   15533   15573   15576   15578
   15533   15573   15576   15579   15534   15533   15573   15574
   15534   15533   15573   15575   15534   15533   15573   15576
   15535   15533   15573   15574   15535   15533   15573   15575
   15535   15533   15573   15576   15536   15539   15542   15543
   15536   15539   15542   15544   15536   15539   15542   15545
   15537   15536   15539   15540   15537   15536   15539   15541
   15537   15536   15539   15542   15538   15536   15539   15540
   15538   15536   15539   15541   15538   15536   15539   15542
   15539   15542   15545   15546   15539   15542   15545   15547
   15539   15542   15545   15548   15540   15539   15542   15543
   15540   15539   15542   15544   15540   15539   15542   15545
   15541   15539   15542   15543   15541   15539   15542   15544
   15541   15539   15542   15545   15542   15545   15548   15549
   15542   15545   15548   15550   15542   15545   15548   15551
   15543   15542   15545   15546   15543   15542   15545   15547
   15543   15542   15545   15548   15544   15542   15545   15546
   15544   15542   15545   15547   15544   15542   15545   15548
   15545   15548   15551   15552   15545   15548   15551   15553
   15545   15548   15551   15554   15546   15545   15548   15549
   15546   15545   15548   15550   15546   15545   15548   15551
   15547   15545   15548   15549   15547   15545   15548   15550
   15547   15545   15548   15551   15548   15551   15554   15555
   15548   15551   15554   15556   15548   15551   15554   15557
   15549   15548   15551   15552   15549   15548   15551   15553
   15549   15548   15551   15554   15550   15548   15551   15552
   15550   15548   15551   15553   15550   15548   15551   15554
   15551   15554   15557   15558   15551   15554   15557   15559
   15551   15554   15557   15560   15552   15551   15554   15555
   15552   15551   15554   15556   15552   15551   15554   15557
   15553   15551   15554   15555   15553   15551   15554   15556
   15553   15551   15554   15557   15554   15557   15560   15561
   15554   15557   15560   15562   15554   15557   15560   15563
   15555   15554   15557   15558   15555   15554   15557   15559
   15555   15554   15557   15560   15556   15554   15557   15558
   15556   15554   15557   15559   15556   15554   15557   15560
   15557   15560   15563   15564   15557   15560   15563   15565
   15557   15560   15563   15566   15558   15557   15560   15561
   15558   15557   15560   15562   15558   15557   15560   15563
   15559   15557   15560   15561   15559   15557   15560   15562
   15559   15557   15560   15563   15560   15563   15566   15567
   15560   15563   15566   15568   15560   15563   15566   15569
   15561   15560   15563   15564   15561   15560   15563   15565
   15561   15560   15563   15566   15562   15560   15563   15564
   15562   15560   15563   15565   15562   15560   15563   15566
   15563   15566   15569   15570   15563   15566   15569   15571
   15563   15566   15569   15572   15564   15563   15566   15567
   15564   15563   15566   15568   15564   15563   15566   15569
   15565   15563   15566   15567   15565   15563   15566   15568
   15565   15563   15566   15569   15567   15566   15569   15570
   15567   15566   15569   15571   15567   15566   15569   15572
   15568   15566   15569   15570   15568   15566   15569   15571
   15568   15566   15569   15572   15573   15576   15579   15580
   15573   15576   15579   15581   15573   15576   15579   15582
   15574   15573   15576   15577   15574   15573   15576   15578
   15574   15573   15576   15579   15575   15573   15576   15577
   15575   15573   15576   15578   15575   15573   15576   15579
   15576   15579   15582   15583   15576   15579   15582   15584
   15576   15579   15582   15585   15577   15576   15579   15580
   15577   15576   15579   15581   15577   15576   15579   15582
   15578   15576   15579   15580   15578   15576   15579   15581
   15578   15576   15579   15582   15579   15582   15585   15586
   15579   15582   15585   15587   15579   15582   15585   15588
   15580   15579   15582   15583   15580   15579   15582   15584
   15580   15579   15582   15585   15581   15579   15582   15583
   15581   15579   15582   15584   15581   15579   15582   15585
   15582   15585   15588   15589   15582   15585   15588   15590
   15582   15585   15588   15591   15583   15582   15585   15586
   15583   15582   15585   15587   15583   15582   15585   15588
   15584   15582   15585   15586   15584   15582   15585   15587
   15584   15582   15585   15588   15585   15588   15591   15592
   15585   15588   15591   15593   15585   15588   15591   15594
   15586   15585   15588   15589   15586   15585   15588   15590
   15586   15585   15588   15591   15587   15585   15588   15589
   15587   15585   15588   15590   15587   15585   15588   15591
   15588   15591   15594   15595   15588   15591   15594   15596
   15588   15591   15594   15597   15589   15588   15591   15592
   15589   15588   15591   15593   15589   15588   15591   15594
   15590   15588   15591   15592   15590   15588   15591   15593
   15590   15588   15591   15594   15591   15594   15597   15598
   15591   15594   15597   15599   15591   15594   15597   15600
   15592   15591   15594   15595   15592   15591   15594   15596
   15592   15591   15594   15597   15593   15591   15594   15595
   15593   15591   15594   15596   15593   15591   15594   15597
   15594   15597   15600   15601   15594   15597   15600   15602
   15594   15597   15600   15603   15595   15594   15597   15598
   15595   15594   15597   15599   15595   15594   15597   15600
   15596   15594   15597   15598   15596   15594   15597   15599
   15596   15594   15597   15600   15597   15600   15603   15604
   15597   15600   15603   15605   15597   15600   15603   15606
   15598   15597   15600   15601   15598   15597   15600   15602
   15598   15597   15600   15603   15599   15597   15600   15601
   15599   15597   15600   15602   15599   15597   15600   15603
   15600   15603   15606   15607   15600   15603   15606   15608
   15600   15603   15606   15609   15601   15600   15603   15604
   15601   15600   15603   15605   15601   15600   15603   15606
   15602   15600   15603   15604   15602   15600   15603   15605
   15602   15600   15603   15606   15604   15603   15606   15607
   15604   15603   15606   15608   15604   15603   15606   15609
   15605   15603   15606   15607   15605   15603   15606   15608
   15605   15603   15606   15609   15610   15623   15626   15627
   15610   15623   15626   15628   15610   15623   15626   15633
   15611   15610   15615   15616   15611   15610   15615   15617
   15611   15610   15615   15618   15611   15610   15619   15620
   15611   15610   15619   15621   15611   15610   15619   15622
   15611   15610   15623   15624   15611   15610   15623   15625
   15611   15610   15623   15626   15615   15610   15611   15612
   15615   15610   15611   15613   15615   15610   15611   15614
   15615   15610   15619   15620   15615   15610   15619   15621
   15615   15610   15619   15622   15615   15610   15623   15624
   15615   15610   15623   15625   15615   15610   15623   15626
   15619   15610   15611   15612   15619   15610   15611   15613
   15619   15610   15611   15614   15619   15610   15615   15616
   15619   15610   15615   15617   15619   15610   15615   15618
   15619   15610   15623   15624   15619   15610   15623   15625
   15619   15610   15623   15626   15623   15610   15611   15612
   15623   15610   15611   15613   15623   15610   15611   15614
   15623   15610   15615   15616   15623   15610   15615   15617
   15623   15610   15615   15618   15623   15610   15619   15620
   15623   15610   15619   15621   15623   15610   15619   15622
   15623   15626   15633   15629   15624   15623   15626   15627
   15624   15623   15626   15628   15624   15623   15626   15633
   15625   15623   15626   15627   15625   15623   15626   15628
   15625   15623   15626   15633   15627   15626   15633   15629
   15628   15626   15633   15629   15629   15632   15634   15635
   15629   15632   15634   15636   15629   15632   15634   15637
   15630   15629   15633   15626   15630   15629   15632   15634
   15631   15629   15633   15626   15631   15629   15632   15634
   15632   15629   15633   15626   15632   15634   15637   15638
   15632   15634   15637   15645   15632   15634   15637   15639
   15633   15629   15632   15634   15634   15637   15645   15646
   15634   15637   15645   15647   15634   15637   15645   15648
   15634   15637   15639   15640   15635   15634   15637   15638
   15635   15634   15637   15645   15635   15634   15637   15639
   15636   15634   15637   15638   15636   15634   15637   15645
   15636   15634   15637   15639   15637   15645   15648   15649
   15637   15639   15640   15642   15637   15639   15640   15641
   15638   15637   15645   15646   15638   15637   15645   15647
   15638   15637   15645   15648   15638   15637   15639   15640
   15639   15640   15642   15643   15639   15640   15642   15644
   15639   15640   15642   15654   15639   15637   15645   15646
   15639   15637   15645   15647   15639   15637   15645   15648
   15640   15642   15654   15655   15640   15642   15654   15656
   15640   15642   15654   15657   15641   15640   15642   15643
   15641   15640   15642   15644   15641   15640   15642   15654
   15642   15654   15657   15658   15642   15654   15657   15659
   15642   15654   15657   15660   15643   15642   15654   15655
   15643   15642   15654   15656   15643   15642   15654   15657
   15644   15642   15654   15655   15644   15642   15654   15656
   15644   15642   15654   15657   15645   15637   15639   15640
   15645   15648   15649   15651   15645   15648   15649   15650
   15646   15645   15648   15649   15647   15645   15648   15649
   15648   15649   15651   15652   15648   15649   15651   15653
   15648   15649   15651   15691   15649   15651   15691   15692
   15649   15651   15691   15693   15649   15651   15691   15694
   15650   15649   15651   15652   15650   15649   15651   15653
   15650   15649   15651   15691   15651   15691   15694   15695
   15651   15691   15694   15696   15651   15691   15694   15697
   15652   15651   15691   15692   15652   15651   15691   15693
   15652   15651   15691   15694   15653   15651   15691   15692
   15653   15651   15691   15693   15653   15651   15691   15694
   15654   15657   15660   15661   15654   15657   15660   15662
   15654   15657   15660   15663   15655   15654   15657   15658
   15655   15654   15657   15659   15655   15654   15657   15660
   15656   15654   15657   15658   15656   15654   15657   15659
   15656   15654   15657   15660   15657   15660   15663   15664
   15657   15660   15663   15665   15657   15660   15663   15666
   15658   15657   15660   15661   15658   15657   15660   15662
   15658   15657   15660   15663   15659   15657   15660   15661
   15659   15657   15660   15662   15659   15657   15660   15663
   15660   15663   15666   15667   15660   15663   15666   15668
   15660   15663   15666   15669   15661   15660   15663   15664
   15661   15660   15663   15665   15661   15660   15663   15666
   15662   15660   15663   15664   15662   15660   15663   15665
   15662   15660   15663   15666   15663   15666   15669   15670
   15663   15666   15669   15671   15663   15666   15669   15672
   15664   15663   15666   15667   15664   15663   15666   15668
   15664   15663   15666   15669   15665   15663   15666   15667
   15665   15663   15666   15668   15665   15663   15666   15669
   15666   15669   15672   15673   15666   15669   15672   15674
   15666   15669   15672   15675   15667   15666   15669   15670
   15667   15666   15669   15671   15667   15666   15669   15672
   15668   15666   15669   15670   15668   15666   15669   15671
   15668   15666   15669   15672   15669   15672   15675   15676
   15669   15672   15675   15677   15669   15672   15675   15678
   15670   15669   15672   15673   15670   15669   15672   15674
   15670   15669   15672   15675   15671   15669   15672   15673
   15671   15669   15672   15674   15671   15669   15672   15675
   15672   15675   15678   15679   15672   15675   15678   15680
   15672   15675   15678   15681   15673   15672   15675   15676
   15673   15672   15675   15677   15673   15672   15675   15678
   15674   15672   15675   15676   15674   15672   15675   15677
   15674   15672   15675   15678   15675   15678   15681   15682
   15675   15678   15681   15683   15675   15678   15681   15684
   15676   15675   15678   15679   15676   15675   15678   15680
   15676   15675   15678   15681   15677   15675   15678   15679
   15677   15675   15678   15680   15677   15675   15678   15681
   15678   15681   15684   15685   15678   15681   15684   15686
   15678   15681   15684   15687   15679   15678   15681   15682
   15679   15678   15681   15683   15679   15678   15681   15684
   15680   15678   15681   15682   15680   15678   15681   15683
   15680   15678   15681   15684   15681   15684   15687   15688
   15681   15684   15687   15689   15681   15684   15687   15690
   15682   15681   15684   15685   15682   15681   15684   15686
   15682   15681   15684   15687   15683   15681   15684   15685
   15683   15681   15684   15686   15683   15681   15684   15687
   15685   15684   15687   15688   15685   15684   15687   15689
   15685   15684   15687   15690   15686   15684   15687   15688
   15686   15684   15687   15689   15686   15684   15687   15690
   15691   15694   15697   15698   15691   15694   15697   15699
   15691   15694   15697   15700   15692   15691   15694   15695
   15692   15691   15694   15696   15692   15691   15694   15697
   15693   15691   15694   15695   15693   15691   15694   15696
   15693   15691   15694   15697   15694   15697   15700   15701
   15694   15697   15700   15702   15694   15697   15700   15703
   15695   15694   15697   15698   15695   15694   15697   15699
   15695   15694   15697   15700   15696   15694   15697   15698
   15696   15694   15697   15699   15696   15694   15697   15700
   15697   15700   15703   15704   15697   15700   15703   15705
   15697   15700   15703   15706   15698   15697   15700   15701
   15698   15697   15700   15702   15698   15697   15700   15703
   15699   15697   15700   15701   15699   15697   15700   15702
   15699   15697   15700   15703   15700   15703   15706   15707
   15700   15703   15706   15708   15700   15703   15706   15709
   15701   15700   15703   15704   15701   15700   15703   15705
   15701   15700   15703   15706   15702   15700   15703   15704
   15702   15700   15703   15705   15702   15700   15703   15706
   15703   15706   15709   15710   15703   15706   15709   15711
   15703   15706   15709   15712   15704   15703   15706   15707
   15704   15703   15706   15708   15704   15703   15706   15709
   15705   15703   15706   15707   15705   15703   15706   15708
   15705   15703   15706   15709   15706   15709   15712   15713
   15706   15709   15712   15714   15706   15709   15712   15715
   15707   15706   15709   15710   15707   15706   15709   15711
   15707   15706   15709   15712   15708   15706   15709   15710
   15708   15706   15709   15711   15708   15706   15709   15712
   15709   15712   15715   15716   15709   15712   15715   15717
   15709   15712   15715   15718   15710   15709   15712   15713
   15710   15709   15712   15714   15710   15709   15712   15715
   15711   15709   15712   15713   15711   15709   15712   15714
   15711   15709   15712   15715   15712   15715   15718   15719
   15712   15715   15718   15720   15712   15715   15718   15721
   15713   15712   15715   15716   15713   15712   15715   15717
   15713   15712   15715   15718   15714   15712   15715   15716
   15714   15712   15715   15717   15714   15712   15715   15718
   15715   15718   15721   15722   15715   15718   15721   15723
   15715   15718   15721   15724   15716   15715   15718   15719
   15716   15715   15718   15720   15716   15715   15718   15721
   15717   15715   15718   15719   15717   15715   15718   15720
   15717   15715   15718   15721   15718   15721   15724   15725
   15718   15721   15724   15726   15718   15721   15724   15727
   15719   15718   15721   15722   15719   15718   15721   15723
   15719   15718   15721   15724   15720   15718   15721   15722
   15720   15718   15721   15723   15720   15718   15721   15724
   15722   15721   15724   15725   15722   15721   15724   15726
   15722   15721   15724   15727   15723   15721   15724   15725
   15723   15721   15724   15726   15723   15721   15724   15727
   15728   15741   15744   15745   15728   15741   15744   15746
   15728   15741   15744   15751   15729   15728   15733   15734
   15729   15728   15733   15735   15729   15728   15733   15736
   15729   15728   15737   15738   15729   15728   15737   15739
   15729   15728   15737   15740   15729   15728   15741   15742
   15729   15728   15741   15743   15729   15728   15741   15744
   15733   15728   15729   15730   15733   15728   15729   15731
   15733   15728   15729   15732   15733   15728   15737   15738
   15733   15728   15737   15739   15733   15728   15737   15740
   15733   15728   15741   15742   15733   15728   15741   15743
   15733   15728   15741   15744   15737   15728   15729   15730
   15737   15728   15729   15731   15737   15728   15729   15732
   15737   15728   15733   15734   15737   15728   15733   15735
   15737   15728   15733   15736   15737   15728   15741   15742
   15737   15728   15741   15743   15737   15728   15741   15744
   15741   15728   15729   15730   15741   15728   15729   15731
   15741   15728   15729   15732   15741   15728   15733   15734
   15741   15728   15733   15735   15741   15728   15733   15736
   15741   15728   15737   15738   15741   15728   15737   15739
   15741   15728   15737   15740   15741   15744   15751   15747
   15742   15741   15744   15745   15742   15741   15744   15746
   15742   15741   15744   15751   15743   15741   15744   15745
   15743   15741   15744   15746   15743   15741   15744   15751
   15745   15744   15751   15747   15746   15744   15751   15747
   15747   15750   15752   15753   15747   15750   15752   15754
   15747   15750   15752   15755   15748   15747   15751   15744
   15748   15747   15750   15752   15749   15747   15751   15744
   15749   15747   15750   15752   15750   15747   15751   15744
   15750   15752   15755   15756   15750   15752   15755   15763
   15750   15752   15755   15757   15751   15747   15750   15752
   15752   15755   15763   15764   15752   15755   15763   15765
   15752   15755   15763   15766   15752   15755   15757   15758
   15753   15752   15755   15756   15753   15752   15755   15763
   15753   15752   15755   15757   15754   15752   15755   15756
   15754   15752   15755   15763   15754   15752   15755   15757
   15755   15763   15766   15767   15755   15757   15758   15760
   15755   15757   15758   15759   15756   15755   15763   15764
   15756   15755   15763   15765   15756   15755   15763   15766
   15756   15755   15757   15758   15757   15758   15760   15761
   15757   15758   15760   15762   15757   15758   15760   15772
   15757   15755   15763   15764   15757   15755   15763   15765
   15757   15755   15763   15766   15758   15760   15772   15773
   15758   15760   15772   15774   15758   15760   15772   15775
   15759   15758   15760   15761   15759   15758   15760   15762
   15759   15758   15760   15772   15760   15772   15775   15776
   15760   15772   15775   15777   15760   15772   15775   15778
   15761   15760   15772   15773   15761   15760   15772   15774
   15761   15760   15772   15775   15762   15760   15772   15773
   15762   15760   15772   15774   15762   15760   15772   15775
   15763   15755   15757   15758   15763   15766   15767   15769
   15763   15766   15767   15768   15764   15763   15766   15767
   15765   15763   15766   15767   15766   15767   15769   15770
   15766   15767   15769   15771   15766   15767   15769   15809
   15767   15769   15809   15810   15767   15769   15809   15811
   15767   15769   15809   15812   15768   15767   15769   15770
   15768   15767   15769   15771   15768   15767   15769   15809
   15769   15809   15812   15813   15769   15809   15812   15814
   15769   15809   15812   15815   15770   15769   15809   15810
   15770   15769   15809   15811   15770   15769   15809   15812
   15771   15769   15809   15810   15771   15769   15809   15811
   15771   15769   15809   15812   15772   15775   15778   15779
   15772   15775   15778   15780   15772   15775   15778   15781
   15773   15772   15775   15776   15773   15772   15775   15777
   15773   15772   15775   15778   15774   15772   15775   15776
   15774   15772   15775   15777   15774   15772   15775   15778
   15775   15778   15781   15782   15775   15778   15781   15783
   15775   15778   15781   15784   15776   15775   15778   15779
   15776   15775   15778   15780   15776   15775   15778   15781
   15777   15775   15778   15779   15777   15775   15778   15780
   15777   15775   15778   15781   15778   15781   15784   15785
   15778   15781   15784   15786   15778   15781   15784   15787
   15779   15778   15781   15782   15779   15778   15781   15783
   15779   15778   15781   15784   15780   15778   15781   15782
   15780   15778   15781   15783   15780   15778   15781   15784
   15781   15784   15787   15788   15781   15784   15787   15789
   15781   15784   15787   15790   15782   15781   15784   15785
   15782   15781   15784   15786   15782   15781   15784   15787
   15783   15781   15784   15785   15783   15781   15784   15786
   15783   15781   15784   15787   15784   15787   15790   15791
   15784   15787   15790   15792   15784   15787   15790   15793
   15785   15784   15787   15788   15785   15784   15787   15789
   15785   15784   15787   15790   15786   15784   15787   15788
   15786   15784   15787   15789   15786   15784   15787   15790
   15787   15790   15793   15794   15787   15790   15793   15795
   15787   15790   15793   15796   15788   15787   15790   15791
   15788   15787   15790   15792   15788   15787   15790   15793
   15789   15787   15790   15791   15789   15787   15790   15792
   15789   15787   15790   15793   15790   15793   15796   15797
   15790   15793   15796   15798   15790   15793   15796   15799
   15791   15790   15793   15794   15791   15790   15793   15795
   15791   15790   15793   15796   15792   15790   15793   15794
   15792   15790   15793   15795   15792   15790   15793   15796
   15793   15796   15799   15800   15793   15796   15799   15801
   15793   15796   15799   15802   15794   15793   15796   15797
   15794   15793   15796   15798   15794   15793   15796   15799
   15795   15793   15796   15797   15795   15793   15796   15798
   15795   15793   15796   15799   15796   15799   15802   15803
   15796   15799   15802   15804   15796   15799   15802   15805
   15797   15796   15799   15800   15797   15796   15799   15801
   15797   15796   15799   15802   15798   15796   15799   15800
   15798   15796   15799   15801   15798   15796   15799   15802
   15799   15802   15805   15806   15799   15802   15805   15807
   15799   15802   15805   15808   15800   15799   15802   15803
   15800   15799   15802   15804   15800   15799   15802   15805
   15801   15799   15802   15803   15801   15799   15802   15804
   15801   15799   15802   15805   15803   15802   15805   15806
   15803   15802   15805   15807   15803   15802   15805   15808
   15804   15802   15805   15806   15804   15802   15805   15807
   15804   15802   15805   15808   15809   15812   15815   15816
   15809   15812   15815   15817   15809   15812   15815   15818
   15810   15809   15812   15813   15810   15809   15812   15814
   15810   15809   15812   15815   15811   15809   15812   15813
   15811   15809   15812   15814   15811   15809   15812   15815
   15812   15815   15818   15819   15812   15815   15818   15820
   15812   15815   15818   15821   15813   15812   15815   15816
   15813   15812   15815   15817   15813   15812   15815   15818
   15814   15812   15815   15816   15814   15812   15815   15817
   15814   15812   15815   15818   15815   15818   15821   15822
   15815   15818   15821   15823   15815   15818   15821   15824
   15816   15815   15818   15819   15816   15815   15818   15820
   15816   15815   15818   15821   15817   15815   15818   15819
   15817   15815   15818   15820   15817   15815   15818   15821
   15818   15821   15824   15825   15818   15821   15824   15826
   15818   15821   15824   15827   15819   15818   15821   15822
   15819   15818   15821   15823   15819   15818   15821   15824
   15820   15818   15821   15822   15820   15818   15821   15823
   15820   15818   15821   15824   15821   15824   15827   15828
   15821   15824   15827   15829   15821   15824   15827   15830
   15822   15821   15824   15825   15822   15821   15824   15826
   15822   15821   15824   15827   15823   15821   15824   15825
   15823   15821   15824   15826   15823   15821   15824   15827
   15824   15827   15830   15831   15824   15827   15830   15832
   15824   15827   15830   15833   15825   15824   15827   15828
   15825   15824   15827   15829   15825   15824   15827   15830
   15826   15824   15827   15828   15826   15824   15827   15829
   15826   15824   15827   15830   15827   15830   15833   15834
   15827   15830   15833   15835   15827   15830   15833   15836
   15828   15827   15830   15831   15828   15827   15830   15832
   15828   15827   15830   15833   15829   15827   15830   15831
   15829   15827   15830   15832   15829   15827   15830   15833
   15830   15833   15836   15837   15830   15833   15836   15838
   15830   15833   15836   15839   15831   15830   15833   15834
   15831   15830   15833   15835   15831   15830   15833   15836
   15832   15830   15833   15834   15832   15830   15833   15835
   15832   15830   15833   15836   15833   15836   15839   15840
   15833   15836   15839   15841   15833   15836   15839   15842
   15834   15833   15836   15837   15834   15833   15836   15838
   15834   15833   15836   15839   15835   15833   15836   15837
   15835   15833   15836   15838   15835   15833   15836   15839
   15836   15839   15842   15843   15836   15839   15842   15844
   15836   15839   15842   15845   15837   15836   15839   15840
   15837   15836   15839   15841   15837   15836   15839   15842
   15838   15836   15839   15840   15838   15836   15839   15841
   15838   15836   15839   15842   15840   15839   15842   15843
   15840   15839   15842   15844   15840   15839   15842   15845
   15841   15839   15842   15843   15841   15839   15842   15844
   15841   15839   15842   15845   15846   15859   15862   15863
   15846   15859   15862   15864   15846   15859   15862   15869
   15847   15846   15851   15852   15847   15846   15851   15853
   15847   15846   15851   15854   15847   15846   15855   15856
   15847   15846   15855   15857   15847   15846   15855   15858
   15847   15846   15859   15860   15847   15846   15859   15861
   15847   15846   15859   15862   15851   15846   15847   15848
   15851   15846   15847   15849   15851   15846   15847   15850
   15851   15846   15855   15856   15851   15846   15855   15857
   15851   15846   15855   15858   15851   15846   15859   15860
   15851   15846   15859   15861   15851   15846   15859   15862
   15855   15846   15847   15848   15855   15846   15847   15849
   15855   15846   15847   15850   15855   15846   15851   15852
   15855   15846   15851   15853   15855   15846   15851   15854
   15855   15846   15859   15860   15855   15846   15859   15861
   15855   15846   15859   15862   15859   15846   15847   15848
   15859   15846   15847   15849   15859   15846   15847   15850
   15859   15846   15851   15852   15859   15846   15851   15853
   15859   15846   15851   15854   15859   15846   15855   15856
   15859   15846   15855   15857   15859   15846   15855   15858
   15859   15862   15869   15865   15860   15859   15862   15863
   15860   15859   15862   15864   15860   15859   15862   15869
   15861   15859   15862   15863   15861   15859   15862   15864
   15861   15859   15862   15869   15863   15862   15869   15865
   15864   15862   15869   15865   15865   15868   15870   15871
   15865   15868   15870   15872   15865   15868   15870   15873
   15866   15865   15869   15862   15866   15865   15868   15870
   15867   15865   15869   15862   15867   15865   15868   15870
   15868   15865   15869   15862   15868   15870   15873   15874
   15868   15870   15873   15881   15868   15870   15873   15875
   15869   15865   15868   15870   15870   15873   15881   15882
   15870   15873   15881   15883   15870   15873   15881   15884
   15870   15873   15875   15876   15871   15870   15873   15874
   15871   15870   15873   15881   15871   15870   15873   15875
   15872   15870   15873   15874   15872   15870   15873   15881
   15872   15870   15873   15875   15873   15881   15884   15885
   15873   15875   15876   15878   15873   15875   15876   15877
   15874   15873   15881   15882   15874   15873   15881   15883
   15874   15873   15881   15884   15874   15873   15875   15876
   15875   15876   15878   15879   15875   15876   15878   15880
   15875   15876   15878   15890   15875   15873   15881   15882
   15875   15873   15881   15883   15875   15873   15881   15884
   15876   15878   15890   15891   15876   15878   15890   15892
   15876   15878   15890   15893   15877   15876   15878   15879
   15877   15876   15878   15880   15877   15876   15878   15890
   15878   15890   15893   15894   15878   15890   15893   15895
   15878   15890   15893   15896   15879   15878   15890   15891
   15879   15878   15890   15892   15879   15878   15890   15893
   15880   15878   15890   15891   15880   15878   15890   15892
   15880   15878   15890   15893   15881   15873   15875   15876
   15881   15884   15885   15887   15881   15884   15885   15886
   15882   15881   15884   15885   15883   15881   15884   15885
   15884   15885   15887   15888   15884   15885   15887   15889
   15884   15885   15887   15927   15885   15887   15927   15928
   15885   15887   15927   15929   15885   15887   15927   15930
   15886   15885   15887   15888   15886   15885   15887   15889
   15886   15885   15887   15927   15887   15927   15930   15931
   15887   15927   15930   15932   15887   15927   15930   15933
   15888   15887   15927   15928   15888   15887   15927   15929
   15888   15887   15927   15930   15889   15887   15927   15928
   15889   15887   15927   15929   15889   15887   15927   15930
   15890   15893   15896   15897   15890   15893   15896   15898
   15890   15893   15896   15899   15891   15890   15893   15894
   15891   15890   15893   15895   15891   15890   15893   15896
   15892   15890   15893   15894   15892   15890   15893   15895
   15892   15890   15893   15896   15893   15896   15899   15900
   15893   15896   15899   15901   15893   15896   15899   15902
   15894   15893   15896   15897   15894   15893   15896   15898
   15894   15893   15896   15899   15895   15893   15896   15897
   15895   15893   15896   15898   15895   15893   15896   15899
   15896   15899   15902   15903   15896   15899   15902   15904
   15896   15899   15902   15905   15897   15896   15899   15900
   15897   15896   15899   15901   15897   15896   15899   15902
   15898   15896   15899   15900   15898   15896   15899   15901
   15898   15896   15899   15902   15899   15902   15905   15906
   15899   15902   15905   15907   15899   15902   15905   15908
   15900   15899   15902   15903   15900   15899   15902   15904
   15900   15899   15902   15905   15901   15899   15902   15903
   15901   15899   15902   15904   15901   15899   15902   15905
   15902   15905   15908   15909   15902   15905   15908   15910
   15902   15905   15908   15911   15903   15902   15905   15906
   15903   15902   15905   15907   15903   15902   15905   15908
   15904   15902   15905   15906   15904   15902   15905   15907
   15904   15902   15905   15908   15905   15908   15911   15912
   15905   15908   15911   15913   15905   15908   15911   15914
   15906   15905   15908   15909   15906   15905   15908   15910
   15906   15905   15908   15911   15907   15905   15908   15909
   15907   15905   15908   15910   15907   15905   15908   15911
   15908   15911   15914   15915   15908   15911   15914   15916
   15908   15911   15914   15917   15909   15908   15911   15912
   15909   15908   15911   15913   15909   15908   15911   15914
   15910   15908   15911   15912   15910   15908   15911   15913
   15910   15908   15911   15914   15911   15914   15917   15918
   15911   15914   15917   15919   15911   15914   15917   15920
   15912   15911   15914   15915   15912   15911   15914   15916
   15912   15911   15914   15917   15913   15911   15914   15915
   15913   15911   15914   15916   15913   15911   15914   15917
   15914   15917   15920   15921   15914   15917   15920   15922
   15914   15917   15920   15923   15915   15914   15917   15918
   15915   15914   15917   15919   15915   15914   15917   15920
   15916   15914   15917   15918   15916   15914   15917   15919
   15916   15914   15917   15920   15917   15920   15923   15924
   15917   15920   15923   15925   15917   15920   15923   15926
   15918   15917   15920   15921   15918   15917   15920   15922
   15918   15917   15920   15923   15919   15917   15920   15921
   15919   15917   15920   15922   15919   15917   15920   15923
   15921   15920   15923   15924   15921   15920   15923   15925
   15921   15920   15923   15926   15922   15920   15923   15924
   15922   15920   15923   15925   15922   15920   15923   15926
   15927   15930   15933   15934   15927   15930   15933   15935
   15927   15930   15933   15936   15928   15927   15930   15931
   15928   15927   15930   15932   15928   15927   15930   15933
   15929   15927   15930   15931   15929   15927   15930   15932
   15929   15927   15930   15933   15930   15933   15936   15937
   15930   15933   15936   15938   15930   15933   15936   15939
   15931   15930   15933   15934   15931   15930   15933   15935
   15931   15930   15933   15936   15932   15930   15933   15934
   15932   15930   15933   15935   15932   15930   15933   15936
   15933   15936   15939   15940   15933   15936   15939   15941
   15933   15936   15939   15942   15934   15933   15936   15937
   15934   15933   15936   15938   15934   15933   15936   15939
   15935   15933   15936   15937   15935   15933   15936   15938
   15935   15933   15936   15939   15936   15939   15942   15943
   15936   15939   15942   15944   15936   15939   15942   15945
   15937   15936   15939   15940   15937   15936   15939   15941
   15937   15936   15939   15942   15938   15936   15939   15940
   15938   15936   15939   15941   15938   15936   15939   15942
   15939   15942   15945   15946   15939   15942   15945   15947
   15939   15942   15945   15948   15940   15939   15942   15943
   15940   15939   15942   15944   15940   15939   15942   15945
   15941   15939   15942   15943   15941   15939   15942   15944
   15941   15939   15942   15945   15942   15945   15948   15949
   15942   15945   15948   15950   15942   15945   15948   15951
   15943   15942   15945   15946   15943   15942   15945   15947
   15943   15942   15945   15948   15944   15942   15945   15946
   15944   15942   15945   15947   15944   15942   15945   15948
   15945   15948   15951   15952   15945   15948   15951   15953
   15945   15948   15951   15954   15946   15945   15948   15949
   15946   15945   15948   15950   15946   15945   15948   15951
   15947   15945   15948   15949   15947   15945   15948   15950
   15947   15945   15948   15951   15948   15951   15954   15955
   15948   15951   15954   15956   15948   15951   15954   15957
   15949   15948   15951   15952   15949   15948   15951   15953
   15949   15948   15951   15954   15950   15948   15951   15952
   15950   15948   15951   15953   15950   15948   15951   15954
   15951   15954   15957   15958   15951   15954   15957   15959
   15951   15954   15957   15960   15952   15951   15954   15955
   15952   15951   15954   15956   15952   15951   15954   15957
   15953   15951   15954   15955   15953   15951   15954   15956
   15953   15951   15954   15957   15954   15957   15960   15961
   15954   15957   15960   15962   15954   15957   15960   15963
   15955   15954   15957   15958   15955   15954   15957   15959
   15955   15954   15957   15960   15956   15954   15957   15958
   15956   15954   15957   15959   15956   15954   15957   15960
   15958   15957   15960   15961   15958   15957   15960   15962
   15958   15957   15960   15963   15959   15957   15960   15961
   15959   15957   15960   15962   15959   15957   15960   15963
   15964   15977   15980   15981   15964   15977   15980   15982
   15964   15977   15980   15987   15965   15964   15969   15970
   15965   15964   15969   15971   15965   15964   15969   15972
   15965   15964   15973   15974   15965   15964   15973   15975
   15965   15964   15973   15976   15965   15964   15977   15978
   15965   15964   15977   15979   15965   15964   15977   15980
   15969   15964   15965   15966   15969   15964   15965   15967
   15969   15964   15965   15968   15969   15964   15973   15974
   15969   15964   15973   15975   15969   15964   15973   15976
   15969   15964   15977   15978   15969   15964   15977   15979
   15969   15964   15977   15980   15973   15964   15965   15966
   15973   15964   15965   15967   15973   15964   15965   15968
   15973   15964   15969   15970   15973   15964   15969   15971
   15973   15964   15969   15972   15973   15964   15977   15978
   15973   15964   15977   15979   15973   15964   15977   15980
   15977   15964   15965   15966   15977   15964   15965   15967
   15977   15964   15965   15968   15977   15964   15969   15970
   15977   15964   15969   15971   15977   15964   15969   15972
   15977   15964   15973   15974   15977   15964   15973   15975
   15977   15964   15973   15976   15977   15980   15987   15983
   15978   15977   15980   15981   15978   15977   15980   15982
   15978   15977   15980   15987   15979   15977   15980   15981
   15979   15977   15980   15982   15979   15977   15980   15987
   15981   15980   15987   15983   15982   15980   15987   15983
   15983   15986   15988   15989   15983   15986   15988   15990
   15983   15986   15988   15991   15984   15983   15987   15980
   15984   15983   15986   15988   15985   15983   15987   15980
   15985   15983   15986   15988   15986   15983   15987   15980
   15986   15988   15991   15992   15986   15988   15991   15999
   15986   15988   15991   15993   15987   15983   15986   15988
   15988   15991   15999   16000   15988   15991   15999   16001
   15988   15991   15999   16002   15988   15991   15993   15994
   15989   15988   15991   15992   15989   15988   15991   15999
   15989   15988   15991   15993   15990   15988   15991   15992
   15990   15988   15991   15999   15990   15988   15991   15993
   15991   15999   16002   16003   15991   15993   15994   15996
   15991   15993   15994   15995   15992   15991   15999   16000
   15992   15991   15999   16001   15992   15991   15999   16002
   15992   15991   15993   15994   15993   15994   15996   15997
   15993   15994   15996   15998   15993   15994   15996   16008
   15993   15991   15999   16000   15993   15991   15999   16001
   15993   15991   15999   16002   15994   15996   16008   16009
   15994   15996   16008   16010   15994   15996   16008   16011
   15995   15994   15996   15997   15995   15994   15996   15998
   15995   15994   15996   16008   15996   16008   16011   16012
   15996   16008   16011   16013   15996   16008   16011   16014
   15997   15996   16008   16009   15997   15996   16008   16010
   15997   15996   16008   16011   15998   15996   16008   16009
   15998   15996   16008   16010   15998   15996   16008   16011
   15999   15991   15993   15994   15999   16002   16003   16005
   15999   16002   16003   16004   16000   15999   16002   16003
   16001   15999   16002   16003   16002   16003   16005   16006
   16002   16003   16005   16007   16002   16003   16005   16045
   16003   16005   16045   16046   16003   16005   16045   16047
   16003   16005   16045   16048   16004   16003   16005   16006
   16004   16003   16005   16007   16004   16003   16005   16045
   16005   16045   16048   16049   16005   16045   16048   16050
   16005   16045   16048   16051   16006   16005   16045   16046
   16006   16005   16045   16047   16006   16005   16045   16048
   16007   16005   16045   16046   16007   16005   16045   16047
   16007   16005   16045   16048   16008   16011   16014   16015
   16008   16011   16014   16016   16008   16011   16014   16017
   16009   16008   16011   16012   16009   16008   16011   16013
   16009   16008   16011   16014   16010   16008   16011   16012
   16010   16008   16011   16013   16010   16008   16011   16014
   16011   16014   16017   16018   16011   16014   16017   16019
   16011   16014   16017   16020   16012   16011   16014   16015
   16012   16011   16014   16016   16012   16011   16014   16017
   16013   16011   16014   16015   16013   16011   16014   16016
   16013   16011   16014   16017   16014   16017   16020   16021
   16014   16017   16020   16022   16014   16017   16020   16023
   16015   16014   16017   16018   16015   16014   16017   16019
   16015   16014   16017   16020   16016   16014   16017   16018
   16016   16014   16017   16019   16016   16014   16017   16020
   16017   16020   16023   16024   16017   16020   16023   16025
   16017   16020   16023   16026   16018   16017   16020   16021
   16018   16017   16020   16022   16018   16017   16020   16023
   16019   16017   16020   16021   16019   16017   16020   16022
   16019   16017   16020   16023   16020   16023   16026   16027
   16020   16023   16026   16028   16020   16023   16026   16029
   16021   16020   16023   16024   16021   16020   16023   16025
   16021   16020   16023   16026   16022   16020   16023   16024
   16022   16020   16023   16025   16022   16020   16023   16026
   16023   16026   16029   16030   16023   16026   16029   16031
   16023   16026   16029   16032   16024   16023   16026   16027
   16024   16023   16026   16028   16024   16023   16026   16029
   16025   16023   16026   16027   16025   16023   16026   16028
   16025   16023   16026   16029   16026   16029   16032   16033
   16026   16029   16032   16034   16026   16029   16032   16035
   16027   16026   16029   16030   16027   16026   16029   16031
   16027   16026   16029   16032   16028   16026   16029   16030
   16028   16026   16029   16031   16028   16026   16029   16032
   16029   16032   16035   16036   16029   16032   16035   16037
   16029   16032   16035   16038   16030   16029   16032   16033
   16030   16029   16032   16034   16030   16029   16032   16035
   16031   16029   16032   16033   16031   16029   16032   16034
   16031   16029   16032   16035   16032   16035   16038   16039
   16032   16035   16038   16040   16032   16035   16038   16041
   16033   16032   16035   16036   16033   16032   16035   16037
   16033   16032   16035   16038   16034   16032   16035   16036
   16034   16032   16035   16037   16034   16032   16035   16038
   16035   16038   16041   16042   16035   16038   16041   16043
   16035   16038   16041   16044   16036   16035   16038   16039
   16036   16035   16038   16040   16036   16035   16038   16041
   16037   16035   16038   16039   16037   16035   16038   16040
   16037   16035   16038   16041   16039   16038   16041   16042
   16039   16038   16041   16043   16039   16038   16041   16044
   16040   16038   16041   16042   16040   16038   16041   16043
   16040   16038   16041   16044   16045   16048   16051   16052
   16045   16048   16051   16053   16045   16048   16051   16054
   16046   16045   16048   16049   16046   16045   16048   16050
   16046   16045   16048   16051   16047   16045   16048   16049
   16047   16045   16048   16050   16047   16045   16048   16051
   16048   16051   16054   16055   16048   16051   16054   16056
   16048   16051   16054   16057   16049   16048   16051   16052
   16049   16048   16051   16053   16049   16048   16051   16054
   16050   16048   16051   16052   16050   16048   16051   16053
   16050   16048   16051   16054   16051   16054   16057   16058
   16051   16054   16057   16059   16051   16054   16057   16060
   16052   16051   16054   16055   16052   16051   16054   16056
   16052   16051   16054   16057   16053   16051   16054   16055
   16053   16051   16054   16056   16053   16051   16054   16057
   16054   16057   16060   16061   16054   16057   16060   16062
   16054   16057   16060   16063   16055   16054   16057   16058
   16055   16054   16057   16059   16055   16054   16057   16060
   16056   16054   16057   16058   16056   16054   16057   16059
   16056   16054   16057   16060   16057   16060   16063   16064
   16057   16060   16063   16065   16057   16060   16063   16066
   16058   16057   16060   16061   16058   16057   16060   16062
   16058   16057   16060   16063   16059   16057   16060   16061
   16059   16057   16060   16062   16059   16057   16060   16063
   16060   16063   16066   16067   16060   16063   16066   16068
   16060   16063   16066   16069   16061   16060   16063   16064
   16061   16060   16063   16065   16061   16060   16063   16066
   16062   16060   16063   16064   16062   16060   16063   16065
   16062   16060   16063   16066   16063   16066   16069   16070
   16063   16066   16069   16071   16063   16066   16069   16072
   16064   16063   16066   16067   16064   16063   16066   16068
   16064   16063   16066   16069   16065   16063   16066   16067
   16065   16063   16066   16068   16065   16063   16066   16069
   16066   16069   16072   16073   16066   16069   16072   16074
   16066   16069   16072   16075   16067   16066   16069   16070
   16067   16066   16069   16071   16067   16066   16069   16072
   16068   16066   16069   16070   16068   16066   16069   16071
   16068   16066   16069   16072   16069   16072   16075   16076
   16069   16072   16075   16077   16069   16072   16075   16078
   16070   16069   16072   16073   16070   16069   16072   16074
   16070   16069   16072   16075   16071   16069   16072   16073
   16071   16069   16072   16074   16071   16069   16072   16075
   16072   16075   16078   16079   16072   16075   16078   16080
   16072   16075   16078   16081   16073   16072   16075   16076
   16073   16072   16075   16077   16073   16072   16075   16078
   16074   16072   16075   16076   16074   16072   16075   16077
   16074   16072   16075   16078   16076   16075   16078   16079
   16076   16075   16078   16080   16076   16075   16078   16081
   16077   16075   16078   16079   16077   16075   16078   16080
   16077   16075   16078   16081   16082   16095   16098   16099
   16082   16095   16098   16100   16082   16095   16098   16105
   16083   16082   16087   16088   16083   16082   16087   16089
   16083   16082   16087   16090   16083   16082   16091   16092
   16083   16082   16091   16093   16083   16082   16091   16094
   16083   16082   16095   16096   16083   16082   16095   16097
   16083   16082   16095   16098   16087   16082   16083   16084
   16087   16082   16083   16085   16087   16082   16083   16086
   16087   16082   16091   16092   16087   16082   16091   16093
   16087   16082   16091   16094   16087   16082   16095   16096
   16087   16082   16095   16097   16087   16082   16095   16098
   16091   16082   16083   16084   16091   16082   16083   16085
   16091   16082   16083   16086   16091   16082   16087   16088
   16091   16082   16087   16089   16091   16082   16087   16090
   16091   16082   16095   16096   16091   16082   16095   16097
   16091   16082   16095   16098   16095   16082   16083   16084
   16095   16082   16083   16085   16095   16082   16083   16086
   16095   16082   16087   16088   16095   16082   16087   16089
   16095   16082   16087   16090   16095   16082   16091   16092
   16095   16082   16091   16093   16095   16082   16091   16094
   16095   16098   16105   16101   16096   16095   16098   16099
   16096   16095   16098   16100   16096   16095   16098   16105
   16097   16095   16098   16099   16097   16095   16098   16100
   16097   16095   16098   16105   16099   16098   16105   16101
   16100   16098   16105   16101   16101   16104   16106   16107
   16101   16104   16106   16108   16101   16104   16106   16109
   16102   16101   16105   16098   16102   16101   16104   16106
   16103   16101   16105   16098   16103   16101   16104   16106
   16104   16101   16105   16098   16104   16106   16109   16110
   16104   16106   16109   16117   16104   16106   16109   16111
   16105   16101   16104   16106   16106   16109   16117   16118
   16106   16109   16117   16119   16106   16109   16117   16120
   16106   16109   16111   16112   16107   16106   16109   16110
   16107   16106   16109   16117   16107   16106   16109   16111
   16108   16106   16109   16110   16108   16106   16109   16117
   16108   16106   16109   16111   16109   16117   16120   16121
   16109   16111   16112   16114   16109   16111   16112   16113
   16110   16109   16117   16118   16110   16109   16117   16119
   16110   16109   16117   16120   16110   16109   16111   16112
   16111   16112   16114   16115   16111   16112   16114   16116
   16111   16112   16114   16126   16111   16109   16117   16118
   16111   16109   16117   16119   16111   16109   16117   16120
   16112   16114   16126   16127   16112   16114   16126   16128
   16112   16114   16126   16129   16113   16112   16114   16115
   16113   16112   16114   16116   16113   16112   16114   16126
   16114   16126   16129   16130   16114   16126   16129   16131
   16114   16126   16129   16132   16115   16114   16126   16127
   16115   16114   16126   16128   16115   16114   16126   16129
   16116   16114   16126   16127   16116   16114   16126   16128
   16116   16114   16126   16129   16117   16109   16111   16112
   16117   16120   16121   16123   16117   16120   16121   16122
   16118   16117   16120   16121   16119   16117   16120   16121
   16120   16121   16123   16124   16120   16121   16123   16125
   16120   16121   16123   16163   16121   16123   16163   16164
   16121   16123   16163   16165   16121   16123   16163   16166
   16122   16121   16123   16124   16122   16121   16123   16125
   16122   16121   16123   16163   16123   16163   16166   16167
   16123   16163   16166   16168   16123   16163   16166   16169
   16124   16123   16163   16164   16124   16123   16163   16165
   16124   16123   16163   16166   16125   16123   16163   16164
   16125   16123   16163   16165   16125   16123   16163   16166
   16126   16129   16132   16133   16126   16129   16132   16134
   16126   16129   16132   16135   16127   16126   16129   16130
   16127   16126   16129   16131   16127   16126   16129   16132
   16128   16126   16129   16130   16128   16126   16129   16131
   16128   16126   16129   16132   16129   16132   16135   16136
   16129   16132   16135   16137   16129   16132   16135   16138
   16130   16129   16132   16133   16130   16129   16132   16134
   16130   16129   16132   16135   16131   16129   16132   16133
   16131   16129   16132   16134   16131   16129   16132   16135
   16132   16135   16138   16139   16132   16135   16138   16140
   16132   16135   16138   16141   16133   16132   16135   16136
   16133   16132   16135   16137   16133   16132   16135   16138
   16134   16132   16135   16136   16134   16132   16135   16137
   16134   16132   16135   16138   16135   16138   16141   16142
   16135   16138   16141   16143   16135   16138   16141   16144
   16136   16135   16138   16139   16136   16135   16138   16140
   16136   16135   16138   16141   16137   16135   16138   16139
   16137   16135   16138   16140   16137   16135   16138   16141
   16138   16141   16144   16145   16138   16141   16144   16146
   16138   16141   16144   16147   16139   16138   16141   16142
   16139   16138   16141   16143   16139   16138   16141   16144
   16140   16138   16141   16142   16140   16138   16141   16143
   16140   16138   16141   16144   16141   16144   16147   16148
   16141   16144   16147   16149   16141   16144   16147   16150
   16142   16141   16144   16145   16142   16141   16144   16146
   16142   16141   16144   16147   16143   16141   16144   16145
   16143   16141   16144   16146   16143   16141   16144   16147
   16144   16147   16150   16151   16144   16147   16150   16152
   16144   16147   16150   16153   16145   16144   16147   16148
   16145   16144   16147   16149   16145   16144   16147   16150
   16146   16144   16147   16148   16146   16144   16147   16149
   16146   16144   16147   16150   16147   16150   16153   16154
   16147   16150   16153   16155   16147   16150   16153   16156
   16148   16147   16150   16151   16148   16147   16150   16152
   16148   16147   16150   16153   16149   16147   16150   16151
   16149   16147   16150   16152   16149   16147   16150   16153
   16150   16153   16156   16157   16150   16153   16156   16158
   16150   16153   16156   16159   16151   16150   16153   16154
   16151   16150   16153   16155   16151   16150   16153   16156
   16152   16150   16153   16154   16152   16150   16153   16155
   16152   16150   16153   16156   16153   16156   16159   16160
   16153   16156   16159   16161   16153   16156   16159   16162
   16154   16153   16156   16157   16154   16153   16156   16158
   16154   16153   16156   16159   16155   16153   16156   16157
   16155   16153   16156   16158   16155   16153   16156   16159
   16157   16156   16159   16160   16157   16156   16159   16161
   16157   16156   16159   16162   16158   16156   16159   16160
   16158   16156   16159   16161   16158   16156   16159   16162
   16163   16166   16169   16170   16163   16166   16169   16171
   16163   16166   16169   16172   16164   16163   16166   16167
   16164   16163   16166   16168   16164   16163   16166   16169
   16165   16163   16166   16167   16165   16163   16166   16168
   16165   16163   16166   16169   16166   16169   16172   16173
   16166   16169   16172   16174   16166   16169   16172   16175
   16167   16166   16169   16170   16167   16166   16169   16171
   16167   16166   16169   16172   16168   16166   16169   16170
   16168   16166   16169   16171   16168   16166   16169   16172
   16169   16172   16175   16176   16169   16172   16175   16177
   16169   16172   16175   16178   16170   16169   16172   16173
   16170   16169   16172   16174   16170   16169   16172   16175
   16171   16169   16172   16173   16171   16169   16172   16174
   16171   16169   16172   16175   16172   16175   16178   16179
   16172   16175   16178   16180   16172   16175   16178   16181
   16173   16172   16175   16176   16173   16172   16175   16177
   16173   16172   16175   16178   16174   16172   16175   16176
   16174   16172   16175   16177   16174   16172   16175   16178
   16175   16178   16181   16182   16175   16178   16181   16183
   16175   16178   16181   16184   16176   16175   16178   16179
   16176   16175   16178   16180   16176   16175   16178   16181
   16177   16175   16178   16179   16177   16175   16178   16180
   16177   16175   16178   16181   16178   16181   16184   16185
   16178   16181   16184   16186   16178   16181   16184   16187
   16179   16178   16181   16182   16179   16178   16181   16183
   16179   16178   16181   16184   16180   16178   16181   16182
   16180   16178   16181   16183   16180   16178   16181   16184
   16181   16184   16187   16188   16181   16184   16187   16189
   16181   16184   16187   16190   16182   16181   16184   16185
   16182   16181   16184   16186   16182   16181   16184   16187
   16183   16181   16184   16185   16183   16181   16184   16186
   16183   16181   16184   16187   16184   16187   16190   16191
   16184   16187   16190   16192   16184   16187   16190   16193
   16185   16184   16187   16188   16185   16184   16187   16189
   16185   16184   16187   16190   16186   16184   16187   16188
   16186   16184   16187   16189   16186   16184   16187   16190
   16187   16190   16193   16194   16187   16190   16193   16195
   16187   16190   16193   16196   16188   16187   16190   16191
   16188   16187   16190   16192   16188   16187   16190   16193
   16189   16187   16190   16191   16189   16187   16190   16192
   16189   16187   16190   16193   16190   16193   16196   16197
   16190   16193   16196   16198   16190   16193   16196   16199
   16191   16190   16193   16194   16191   16190   16193   16195
   16191   16190   16193   16196   16192   16190   16193   16194
   16192   16190   16193   16195   16192   16190   16193   16196
   16194   16193   16196   16197   16194   16193   16196   16198
   16194   16193   16196   16199   16195   16193   16196   16197
   16195   16193   16196   16198   16195   16193   16196   16199
   16200   16213   16216   16217   16200   16213   16216   16218
   16200   16213   16216   16223   16201   16200   16205   16206
   16201   16200   16205   16207   16201   16200   16205   16208
   16201   16200   16209   16210   16201   16200   16209   16211
   16201   16200   16209   16212   16201   16200   16213   16214
   16201   16200   16213   16215   16201   16200   16213   16216
   16205   16200   16201   16202   16205   16200   16201   16203
   16205   16200   16201   16204   16205   16200   16209   16210
   16205   16200   16209   16211   16205   16200   16209   16212
   16205   16200   16213   16214   16205   16200   16213   16215
   16205   16200   16213   16216   16209   16200   16201   16202
   16209   16200   16201   16203   16209   16200   16201   16204
   16209   16200   16205   16206   16209   16200   16205   16207
   16209   16200   16205   16208   16209   16200   16213   16214
   16209   16200   16213   16215   16209   16200   16213   16216
   16213   16200   16201   16202   16213   16200   16201   16203
   16213   16200   16201   16204   16213   16200   16205   16206
   16213   16200   16205   16207   16213   16200   16205   16208
   16213   16200   16209   16210   16213   16200   16209   16211
   16213   16200   16209   16212   16213   16216   16223   16219
   16214   16213   16216   16217   16214   16213   16216   16218
   16214   16213   16216   16223   16215   16213   16216   16217
   16215   16213   16216   16218   16215   16213   16216   16223
   16217   16216   16223   16219   16218   16216   16223   16219
   16219   16222   16224   16225   16219   16222   16224   16226
   16219   16222   16224   16227   16220   16219   16223   16216
   16220   16219   16222   16224   16221   16219   16223   16216
   16221   16219   16222   16224   16222   16219   16223   16216
   16222   16224   16227   16228   16222   16224   16227   16235
   16222   16224   16227   16229   16223   16219   16222   16224
   16224   16227   16235   16236   16224   16227   16235   16237
   16224   16227   16235   16238   16224   16227   16229   16230
   16225   16224   16227   16228   16225   16224   16227   16235
   16225   16224   16227   16229   16226   16224   16227   16228
   16226   16224   16227   16235   16226   16224   16227   16229
   16227   16235   16238   16239   16227   16229   16230   16232
   16227   16229   16230   16231   16228   16227   16235   16236
   16228   16227   16235   16237   16228   16227   16235   16238
   16228   16227   16229   16230   16229   16230   16232   16233
   16229   16230   16232   16234   16229   16230   16232   16244
   16229   16227   16235   16236   16229   16227   16235   16237
   16229   16227   16235   16238   16230   16232   16244   16245
   16230   16232   16244   16246   16230   16232   16244   16247
   16231   16230   16232   16233   16231   16230   16232   16234
   16231   16230   16232   16244   16232   16244   16247   16248
   16232   16244   16247   16249   16232   16244   16247   16250
   16233   16232   16244   16245   16233   16232   16244   16246
   16233   16232   16244   16247   16234   16232   16244   16245
   16234   16232   16244   16246   16234   16232   16244   16247
   16235   16227   16229   16230   16235   16238   16239   16241
   16235   16238   16239   16240   16236   16235   16238   16239
   16237   16235   16238   16239   16238   16239   16241   16242
   16238   16239   16241   16243   16238   16239   16241   16281
   16239   16241   16281   16282   16239   16241   16281   16283
   16239   16241   16281   16284   16240   16239   16241   16242
   16240   16239   16241   16243   16240   16239   16241   16281
   16241   16281   16284   16285   16241   16281   16284   16286
   16241   16281   16284   16287   16242   16241   16281   16282
   16242   16241   16281   16283   16242   16241   16281   16284
   16243   16241   16281   16282   16243   16241   16281   16283
   16243   16241   16281   16284   16244   16247   16250   16251
   16244   16247   16250   16252   16244   16247   16250   16253
   16245   16244   16247   16248   16245   16244   16247   16249
   16245   16244   16247   16250   16246   16244   16247   16248
   16246   16244   16247   16249   16246   16244   16247   16250
   16247   16250   16253   16254   16247   16250   16253   16255
   16247   16250   16253   16256   16248   16247   16250   16251
   16248   16247   16250   16252   16248   16247   16250   16253
   16249   16247   16250   16251   16249   16247   16250   16252
   16249   16247   16250   16253   16250   16253   16256   16257
   16250   16253   16256   16258   16250   16253   16256   16259
   16251   16250   16253   16254   16251   16250   16253   16255
   16251   16250   16253   16256   16252   16250   16253   16254
   16252   16250   16253   16255   16252   16250   16253   16256
   16253   16256   16259   16260   16253   16256   16259   16261
   16253   16256   16259   16262   16254   16253   16256   16257
   16254   16253   16256   16258   16254   16253   16256   16259
   16255   16253   16256   16257   16255   16253   16256   16258
   16255   16253   16256   16259   16256   16259   16262   16263
   16256   16259   16262   16264   16256   16259   16262   16265
   16257   16256   16259   16260   16257   16256   16259   16261
   16257   16256   16259   16262   16258   16256   16259   16260
   16258   16256   16259   16261   16258   16256   16259   16262
   16259   16262   16265   16266   16259   16262   16265   16267
   16259   16262   16265   16268   16260   16259   16262   16263
   16260   16259   16262   16264   16260   16259   16262   16265
   16261   16259   16262   16263   16261   16259   16262   16264
   16261   16259   16262   16265   16262   16265   16268   16269
   16262   16265   16268   16270   16262   16265   16268   16271
   16263   16262   16265   16266   16263   16262   16265   16267
   16263   16262   16265   16268   16264   16262   16265   16266
   16264   16262   16265   16267   16264   16262   16265   16268
   16265   16268   16271   16272   16265   16268   16271   16273
   16265   16268   16271   16274   16266   16265   16268   16269
   16266   16265   16268   16270   16266   16265   16268   16271
   16267   16265   16268   16269   16267   16265   16268   16270
   16267   16265   16268   16271   16268   16271   16274   16275
   16268   16271   16274   16276   16268   16271   16274   16277
   16269   16268   16271   16272   16269   16268   16271   16273
   16269   16268   16271   16274   16270   16268   16271   16272
   16270   16268   16271   16273   16270   16268   16271   16274
   16271   16274   16277   16278   16271   16274   16277   16279
   16271   16274   16277   16280   16272   16271   16274   16275
   16272   16271   16274   16276   16272   16271   16274   16277
   16273   16271   16274   16275   16273   16271   16274   16276
   16273   16271   16274   16277   16275   16274   16277   16278
   16275   16274   16277   16279   16275   16274   16277   16280
   16276   16274   16277   16278   16276   16274   16277   16279
   16276   16274   16277   16280   16281   16284   16287   16288
   16281   16284   16287   16289   16281   16284   16287   16290
   16282   16281   16284   16285   16282   16281   16284   16286
   16282   16281   16284   16287   16283   16281   16284   16285
   16283   16281   16284   16286   16283   16281   16284   16287
   16284   16287   16290   16291   16284   16287   16290   16292
   16284   16287   16290   16293   16285   16284   16287   16288
   16285   16284   16287   16289   16285   16284   16287   16290
   16286   16284   16287   16288   16286   16284   16287   16289
   16286   16284   16287   16290   16287   16290   16293   16294
   16287   16290   16293   16295   16287   16290   16293   16296
   16288   16287   16290   16291   16288   16287   16290   16292
   16288   16287   16290   16293   16289   16287   16290   16291
   16289   16287   16290   16292   16289   16287   16290   16293
   16290   16293   16296   16297   16290   16293   16296   16298
   16290   16293   16296   16299   16291   16290   16293   16294
   16291   16290   16293   16295   16291   16290   16293   16296
   16292   16290   16293   16294   16292   16290   16293   16295
   16292   16290   16293   16296   16293   16296   16299   16300
   16293   16296   16299   16301   16293   16296   16299   16302
   16294   16293   16296   16297   16294   16293   16296   16298
   16294   16293   16296   16299   16295   16293   16296   16297
   16295   16293   16296   16298   16295   16293   16296   16299
   16296   16299   16302   16303   16296   16299   16302   16304
   16296   16299   16302   16305   16297   16296   16299   16300
   16297   16296   16299   16301   16297   16296   16299   16302
   16298   16296   16299   16300   16298   16296   16299   16301
   16298   16296   16299   16302   16299   16302   16305   16306
   16299   16302   16305   16307   16299   16302   16305   16308
   16300   16299   16302   16303   16300   16299   16302   16304
   16300   16299   16302   16305   16301   16299   16302   16303
   16301   16299   16302   16304   16301   16299   16302   16305
   16302   16305   16308   16309   16302   16305   16308   16310
   16302   16305   16308   16311   16303   16302   16305   16306
   16303   16302   16305   16307   16303   16302   16305   16308
   16304   16302   16305   16306   16304   16302   16305   16307
   16304   16302   16305   16308   16305   16308   16311   16312
   16305   16308   16311   16313   16305   16308   16311   16314
   16306   16305   16308   16309   16306   16305   16308   16310
   16306   16305   16308   16311   16307   16305   16308   16309
   16307   16305   16308   16310   16307   16305   16308   16311
   16308   16311   16314   16315   16308   16311   16314   16316
   16308   16311   16314   16317   16309   16308   16311   16312
   16309   16308   16311   16313   16309   16308   16311   16314
   16310   16308   16311   16312   16310   16308   16311   16313
   16310   16308   16311   16314   16312   16311   16314   16315
   16312   16311   16314   16316   16312   16311   16314   16317
   16313   16311   16314   16315   16313   16311   16314   16316
   16313   16311   16314   16317   16318   16331   16334   16335
   16318   16331   16334   16336   16318   16331   16334   16341
   16319   16318   16323   16324   16319   16318   16323   16325
   16319   16318   16323   16326   16319   16318   16327   16328
   16319   16318   16327   16329   16319   16318   16327   16330
   16319   16318   16331   16332   16319   16318   16331   16333
   16319   16318   16331   16334   16323   16318   16319   16320
   16323   16318   16319   16321   16323   16318   16319   16322
   16323   16318   16327   16328   16323   16318   16327   16329
   16323   16318   16327   16330   16323   16318   16331   16332
   16323   16318   16331   16333   16323   16318   16331   16334
   16327   16318   16319   16320   16327   16318   16319   16321
   16327   16318   16319   16322   16327   16318   16323   16324
   16327   16318   16323   16325   16327   16318   16323   16326
   16327   16318   16331   16332   16327   16318   16331   16333
   16327   16318   16331   16334   16331   16318   16319   16320
   16331   16318   16319   16321   16331   16318   16319   16322
   16331   16318   16323   16324   16331   16318   16323   16325
   16331   16318   16323   16326   16331   16318   16327   16328
   16331   16318   16327   16329   16331   16318   16327   16330
   16331   16334   16341   16337   16332   16331   16334   16335
   16332   16331   16334   16336   16332   16331   16334   16341
   16333   16331   16334   16335   16333   16331   16334   16336
   16333   16331   16334   16341   16335   16334   16341   16337
   16336   16334   16341   16337   16337   16340   16342   16343
   16337   16340   16342   16344   16337   16340   16342   16345
   16338   16337   16341   16334   16338   16337   16340   16342
   16339   16337   16341   16334   16339   16337   16340   16342
   16340   16337   16341   16334   16340   16342   16345   16346
   16340   16342   16345   16353   16340   16342   16345   16347
   16341   16337   16340   16342   16342   16345   16353   16354
   16342   16345   16353   16355   16342   16345   16353   16356
   16342   16345   16347   16348   16343   16342   16345   16346
   16343   16342   16345   16353   16343   16342   16345   16347
   16344   16342   16345   16346   16344   16342   16345   16353
   16344   16342   16345   16347   16345   16353   16356   16357
   16345   16347   16348   16350   16345   16347   16348   16349
   16346   16345   16353   16354   16346   16345   16353   16355
   16346   16345   16353   16356   16346   16345   16347   16348
   16347   16348   16350   16351   16347   16348   16350   16352
   16347   16348   16350   16362   16347   16345   16353   16354
   16347   16345   16353   16355   16347   16345   16353   16356
   16348   16350   16362   16363   16348   16350   16362   16364
   16348   16350   16362   16365   16349   16348   16350   16351
   16349   16348   16350   16352   16349   16348   16350   16362
   16350   16362   16365   16366   16350   16362   16365   16367
   16350   16362   16365   16368   16351   16350   16362   16363
   16351   16350   16362   16364   16351   16350   16362   16365
   16352   16350   16362   16363   16352   16350   16362   16364
   16352   16350   16362   16365   16353   16345   16347   16348
   16353   16356   16357   16359   16353   16356   16357   16358
   16354   16353   16356   16357   16355   16353   16356   16357
   16356   16357   16359   16360   16356   16357   16359   16361
   16356   16357   16359   16399   16357   16359   16399   16400
   16357   16359   16399   16401   16357   16359   16399   16402
   16358   16357   16359   16360   16358   16357   16359   16361
   16358   16357   16359   16399   16359   16399   16402   16403
   16359   16399   16402   16404   16359   16399   16402   16405
   16360   16359   16399   16400   16360   16359   16399   16401
   16360   16359   16399   16402   16361   16359   16399   16400
   16361   16359   16399   16401   16361   16359   16399   16402
   16362   16365   16368   16369   16362   16365   16368   16370
   16362   16365   16368   16371   16363   16362   16365   16366
   16363   16362   16365   16367   16363   16362   16365   16368
   16364   16362   16365   16366   16364   16362   16365   16367
   16364   16362   16365   16368   16365   16368   16371   16372
   16365   16368   16371   16373   16365   16368   16371   16374
   16366   16365   16368   16369   16366   16365   16368   16370
   16366   16365   16368   16371   16367   16365   16368   16369
   16367   16365   16368   16370   16367   16365   16368   16371
   16368   16371   16374   16375   16368   16371   16374   16376
   16368   16371   16374   16377   16369   16368   16371   16372
   16369   16368   16371   16373   16369   16368   16371   16374
   16370   16368   16371   16372   16370   16368   16371   16373
   16370   16368   16371   16374   16371   16374   16377   16378
   16371   16374   16377   16379   16371   16374   16377   16380
   16372   16371   16374   16375   16372   16371   16374   16376
   16372   16371   16374   16377   16373   16371   16374   16375
   16373   16371   16374   16376   16373   16371   16374   16377
   16374   16377   16380   16381   16374   16377   16380   16382
   16374   16377   16380   16383   16375   16374   16377   16378
   16375   16374   16377   16379   16375   16374   16377   16380
   16376   16374   16377   16378   16376   16374   16377   16379
   16376   16374   16377   16380   16377   16380   16383   16384
   16377   16380   16383   16385   16377   16380   16383   16386
   16378   16377   16380   16381   16378   16377   16380   16382
   16378   16377   16380   16383   16379   16377   16380   16381
   16379   16377   16380   16382   16379   16377   16380   16383
   16380   16383   16386   16387   16380   16383   16386   16388
   16380   16383   16386   16389   16381   16380   16383   16384
   16381   16380   16383   16385   16381   16380   16383   16386
   16382   16380   16383   16384   16382   16380   16383   16385
   16382   16380   16383   16386   16383   16386   16389   16390
   16383   16386   16389   16391   16383   16386   16389   16392
   16384   16383   16386   16387   16384   16383   16386   16388
   16384   16383   16386   16389   16385   16383   16386   16387
   16385   16383   16386   16388   16385   16383   16386   16389
   16386   16389   16392   16393   16386   16389   16392   16394
   16386   16389   16392   16395   16387   16386   16389   16390
   16387   16386   16389   16391   16387   16386   16389   16392
   16388   16386   16389   16390   16388   16386   16389   16391
   16388   16386   16389   16392   16389   16392   16395   16396
   16389   16392   16395   16397   16389   16392   16395   16398
   16390   16389   16392   16393   16390   16389   16392   16394
   16390   16389   16392   16395   16391   16389   16392   16393
   16391   16389   16392   16394   16391   16389   16392   16395
   16393   16392   16395   16396   16393   16392   16395   16397
   16393   16392   16395   16398   16394   16392   16395   16396
   16394   16392   16395   16397   16394   16392   16395   16398
   16399   16402   16405   16406   16399   16402   16405   16407
   16399   16402   16405   16408   16400   16399   16402   16403
   16400   16399   16402   16404   16400   16399   16402   16405
   16401   16399   16402   16403   16401   16399   16402   16404
   16401   16399   16402   16405   16402   16405   16408   16409
   16402   16405   16408   16410   16402   16405   16408   16411
   16403   16402   16405   16406   16403   16402   16405   16407
   16403   16402   16405   16408   16404   16402   16405   16406
   16404   16402   16405   16407   16404   16402   16405   16408
   16405   16408   16411   16412   16405   16408   16411   16413
   16405   16408   16411   16414   16406   16405   16408   16409
   16406   16405   16408   16410   16406   16405   16408   16411
   16407   16405   16408   16409   16407   16405   16408   16410
   16407   16405   16408   16411   16408   16411   16414   16415
   16408   16411   16414   16416   16408   16411   16414   16417
   16409   16408   16411   16412   16409   16408   16411   16413
   16409   16408   16411   16414   16410   16408   16411   16412
   16410   16408   16411   16413   16410   16408   16411   16414
   16411   16414   16417   16418   16411   16414   16417   16419
   16411   16414   16417   16420   16412   16411   16414   16415
   16412   16411   16414   16416   16412   16411   16414   16417
   16413   16411   16414   16415   16413   16411   16414   16416
   16413   16411   16414   16417   16414   16417   16420   16421
   16414   16417   16420   16422   16414   16417   16420   16423
   16415   16414   16417   16418   16415   16414   16417   16419
   16415   16414   16417   16420   16416   16414   16417   16418
   16416   16414   16417   16419   16416   16414   16417   16420
   16417   16420   16423   16424   16417   16420   16423   16425
   16417   16420   16423   16426   16418   16417   16420   16421
   16418   16417   16420   16422   16418   16417   16420   16423
   16419   16417   16420   16421   16419   16417   16420   16422
   16419   16417   16420   16423   16420   16423   16426   16427
   16420   16423   16426   16428   16420   16423   16426   16429
   16421   16420   16423   16424   16421   16420   16423   16425
   16421   16420   16423   16426   16422   16420   16423   16424
   16422   16420   16423   16425   16422   16420   16423   16426
   16423   16426   16429   16430   16423   16426   16429   16431
   16423   16426   16429   16432   16424   16423   16426   16427
   16424   16423   16426   16428   16424   16423   16426   16429
   16425   16423   16426   16427   16425   16423   16426   16428
   16425   16423   16426   16429   16426   16429   16432   16433
   16426   16429   16432   16434   16426   16429   16432   16435
   16427   16426   16429   16430   16427   16426   16429   16431
   16427   16426   16429   16432   16428   16426   16429   16430
   16428   16426   16429   16431   16428   16426   16429   16432
   16430   16429   16432   16433   16430   16429   16432   16434
   16430   16429   16432   16435   16431   16429   16432   16433
   16431   16429   16432   16434   16431   16429   16432   16435
   16436   16449   16452   16453   16436   16449   16452   16454
   16436   16449   16452   16459   16437   16436   16441   16442
   16437   16436   16441   16443   16437   16436   16441   16444
   16437   16436   16445   16446   16437   16436   16445   16447
   16437   16436   16445   16448   16437   16436   16449   16450
   16437   16436   16449   16451   16437   16436   16449   16452
   16441   16436   16437   16438   16441   16436   16437   16439
   16441   16436   16437   16440   16441   16436   16445   16446
   16441   16436   16445   16447   16441   16436   16445   16448
   16441   16436   16449   16450   16441   16436   16449   16451
   16441   16436   16449   16452   16445   16436   16437   16438
   16445   16436   16437   16439   16445   16436   16437   16440
   16445   16436   16441   16442   16445   16436   16441   16443
   16445   16436   16441   16444   16445   16436   16449   16450
   16445   16436   16449   16451   16445   16436   16449   16452
   16449   16436   16437   16438   16449   16436   16437   16439
   16449   16436   16437   16440   16449   16436   16441   16442
   16449   16436   16441   16443   16449   16436   16441   16444
   16449   16436   16445   16446   16449   16436   16445   16447
   16449   16436   16445   16448   16449   16452   16459   16455
   16450   16449   16452   16453   16450   16449   16452   16454
   16450   16449   16452   16459   16451   16449   16452   16453
   16451   16449   16452   16454   16451   16449   16452   16459
   16453   16452   16459   16455   16454   16452   16459   16455
   16455   16458   16460   16461   16455   16458   16460   16462
   16455   16458   16460   16463   16456   16455   16459   16452
   16456   16455   16458   16460   16457   16455   16459   16452
   16457   16455   16458   16460   16458   16455   16459   16452
   16458   16460   16463   16464   16458   16460   16463   16471
   16458   16460   16463   16465   16459   16455   16458   16460
   16460   16463   16471   16472   16460   16463   16471   16473
   16460   16463   16471   16474   16460   16463   16465   16466
   16461   16460   16463   16464   16461   16460   16463   16471
   16461   16460   16463   16465   16462   16460   16463   16464
   16462   16460   16463   16471   16462   16460   16463   16465
   16463   16471   16474   16475   16463   16465   16466   16468
   16463   16465   16466   16467   16464   16463   16471   16472
   16464   16463   16471   16473   16464   16463   16471   16474
   16464   16463   16465   16466   16465   16466   16468   16469
   16465   16466   16468   16470   16465   16466   16468   16480
   16465   16463   16471   16472   16465   16463   16471   16473
   16465   16463   16471   16474   16466   16468   16480   16481
   16466   16468   16480   16482   16466   16468   16480   16483
   16467   16466   16468   16469   16467   16466   16468   16470
   16467   16466   16468   16480   16468   16480   16483   16484
   16468   16480   16483   16485   16468   16480   16483   16486
   16469   16468   16480   16481   16469   16468   16480   16482
   16469   16468   16480   16483   16470   16468   16480   16481
   16470   16468   16480   16482   16470   16468   16480   16483
   16471   16463   16465   16466   16471   16474   16475   16477
   16471   16474   16475   16476   16472   16471   16474   16475
   16473   16471   16474   16475   16474   16475   16477   16478
   16474   16475   16477   16479   16474   16475   16477   16517
   16475   16477   16517   16518   16475   16477   16517   16519
   16475   16477   16517   16520   16476   16475   16477   16478
   16476   16475   16477   16479   16476   16475   16477   16517
   16477   16517   16520   16521   16477   16517   16520   16522
   16477   16517   16520   16523   16478   16477   16517   16518
   16478   16477   16517   16519   16478   16477   16517   16520
   16479   16477   16517   16518   16479   16477   16517   16519
   16479   16477   16517   16520   16480   16483   16486   16487
   16480   16483   16486   16488   16480   16483   16486   16489
   16481   16480   16483   16484   16481   16480   16483   16485
   16481   16480   16483   16486   16482   16480   16483   16484
   16482   16480   16483   16485   16482   16480   16483   16486
   16483   16486   16489   16490   16483   16486   16489   16491
   16483   16486   16489   16492   16484   16483   16486   16487
   16484   16483   16486   16488   16484   16483   16486   16489
   16485   16483   16486   16487   16485   16483   16486   16488
   16485   16483   16486   16489   16486   16489   16492   16493
   16486   16489   16492   16494   16486   16489   16492   16495
   16487   16486   16489   16490   16487   16486   16489   16491
   16487   16486   16489   16492   16488   16486   16489   16490
   16488   16486   16489   16491   16488   16486   16489   16492
   16489   16492   16495   16496   16489   16492   16495   16497
   16489   16492   16495   16498   16490   16489   16492   16493
   16490   16489   16492   16494   16490   16489   16492   16495
   16491   16489   16492   16493   16491   16489   16492   16494
   16491   16489   16492   16495   16492   16495   16498   16499
   16492   16495   16498   16500   16492   16495   16498   16501
   16493   16492   16495   16496   16493   16492   16495   16497
   16493   16492   16495   16498   16494   16492   16495   16496
   16494   16492   16495   16497   16494   16492   16495   16498
   16495   16498   16501   16502   16495   16498   16501   16503
   16495   16498   16501   16504   16496   16495   16498   16499
   16496   16495   16498   16500   16496   16495   16498   16501
   16497   16495   16498   16499   16497   16495   16498   16500
   16497   16495   16498   16501   16498   16501   16504   16505
   16498   16501   16504   16506   16498   16501   16504   16507
   16499   16498   16501   16502   16499   16498   16501   16503
   16499   16498   16501   16504   16500   16498   16501   16502
   16500   16498   16501   16503   16500   16498   16501   16504
   16501   16504   16507   16508   16501   16504   16507   16509
   16501   16504   16507   16510   16502   16501   16504   16505
   16502   16501   16504   16506   16502   16501   16504   16507
   16503   16501   16504   16505   16503   16501   16504   16506
   16503   16501   16504   16507   16504   16507   16510   16511
   16504   16507   16510   16512   16504   16507   16510   16513
   16505   16504   16507   16508   16505   16504   16507   16509
   16505   16504   16507   16510   16506   16504   16507   16508
   16506   16504   16507   16509   16506   16504   16507   16510
   16507   16510   16513   16514   16507   16510   16513   16515
   16507   16510   16513   16516   16508   16507   16510   16511
   16508   16507   16510   16512   16508   16507   16510   16513
   16509   16507   16510   16511   16509   16507   16510   16512
   16509   16507   16510   16513   16511   16510   16513   16514
   16511   16510   16513   16515   16511   16510   16513   16516
   16512   16510   16513   16514   16512   16510   16513   16515
   16512   16510   16513   16516   16517   16520   16523   16524
   16517   16520   16523   16525   16517   16520   16523   16526
   16518   16517   16520   16521   16518   16517   16520   16522
   16518   16517   16520   16523   16519   16517   16520   16521
   16519   16517   16520   16522   16519   16517   16520   16523
   16520   16523   16526   16527   16520   16523   16526   16528
   16520   16523   16526   16529   16521   16520   16523   16524
   16521   16520   16523   16525   16521   16520   16523   16526
   16522   16520   16523   16524   16522   16520   16523   16525
   16522   16520   16523   16526   16523   16526   16529   16530
   16523   16526   16529   16531   16523   16526   16529   16532
   16524   16523   16526   16527   16524   16523   16526   16528
   16524   16523   16526   16529   16525   16523   16526   16527
   16525   16523   16526   16528   16525   16523   16526   16529
   16526   16529   16532   16533   16526   16529   16532   16534
   16526   16529   16532   16535   16527   16526   16529   16530
   16527   16526   16529   16531   16527   16526   16529   16532
   16528   16526   16529   16530   16528   16526   16529   16531
   16528   16526   16529   16532   16529   16532   16535   16536
   16529   16532   16535   16537   16529   16532   16535   16538
   16530   16529   16532   16533   16530   16529   16532   16534
   16530   16529   16532   16535   16531   16529   16532   16533
   16531   16529   16532   16534   16531   16529   16532   16535
   16532   16535   16538   16539   16532   16535   16538   16540
   16532   16535   16538   16541   16533   16532   16535   16536
   16533   16532   16535   16537   16533   16532   16535   16538
   16534   16532   16535   16536   16534   16532   16535   16537
   16534   16532   16535   16538   16535   16538   16541   16542
   16535   16538   16541   16543   16535   16538   16541   16544
   16536   16535   16538   16539   16536   16535   16538   16540
   16536   16535   16538   16541   16537   16535   16538   16539
   16537   16535   16538   16540   16537   16535   16538   16541
   16538   16541   16544   16545   16538   16541   16544   16546
   16538   16541   16544   16547   16539   16538   16541   16542
   16539   16538   16541   16543   16539   16538   16541   16544
   16540   16538   16541   16542   16540   16538   16541   16543
   16540   16538   16541   16544   16541   16544   16547   16548
   16541   16544   16547   16549   16541   16544   16547   16550
   16542   16541   16544   16545   16542   16541   16544   16546
   16542   16541   16544   16547   16543   16541   16544   16545
   16543   16541   16544   16546   16543   16541   16544   16547
   16544   16547   16550   16551   16544   16547   16550   16552
   16544   16547   16550   16553   16545   16544   16547   16548
   16545   16544   16547   16549   16545   16544   16547   16550
   16546   16544   16547   16548   16546   16544   16547   16549
   16546   16544   16547   16550   16548   16547   16550   16551
   16548   16547   16550   16552   16548   16547   16550   16553
   16549   16547   16550   16551   16549   16547   16550   16552
   16549   16547   16550   16553   16554   16567   16570   16571
   16554   16567   16570   16572   16554   16567   16570   16577
   16555   16554   16559   16560   16555   16554   16559   16561
   16555   16554   16559   16562   16555   16554   16563   16564
   16555   16554   16563   16565   16555   16554   16563   16566
   16555   16554   16567   16568   16555   16554   16567   16569
   16555   16554   16567   16570   16559   16554   16555   16556
   16559   16554   16555   16557   16559   16554   16555   16558
   16559   16554   16563   16564   16559   16554   16563   16565
   16559   16554   16563   16566   16559   16554   16567   16568
   16559   16554   16567   16569   16559   16554   16567   16570
   16563   16554   16555   16556   16563   16554   16555   16557
   16563   16554   16555   16558   16563   16554   16559   16560
   16563   16554   16559   16561   16563   16554   16559   16562
   16563   16554   16567   16568   16563   16554   16567   16569
   16563   16554   16567   16570   16567   16554   16555   16556
   16567   16554   16555   16557   16567   16554   16555   16558
   16567   16554   16559   16560   16567   16554   16559   16561
   16567   16554   16559   16562   16567   16554   16563   16564
   16567   16554   16563   16565   16567   16554   16563   16566
   16567   16570   16577   16573   16568   16567   16570   16571
   16568   16567   16570   16572   16568   16567   16570   16577
   16569   16567   16570   16571   16569   16567   16570   16572
   16569   16567   16570   16577   16571   16570   16577   16573
   16572   16570   16577   16573   16573   16576   16578   16579
   16573   16576   16578   16580   16573   16576   16578   16581
   16574   16573   16577   16570   16574   16573   16576   16578
   16575   16573   16577   16570   16575   16573   16576   16578
   16576   16573   16577   16570   16576   16578   16581   16582
   16576   16578   16581   16589   16576   16578   16581   16583
   16577   16573   16576   16578   16578   16581   16589   16590
   16578   16581   16589   16591   16578   16581   16589   16592
   16578   16581   16583   16584   16579   16578   16581   16582
   16579   16578   16581   16589   16579   16578   16581   16583
   16580   16578   16581   16582   16580   16578   16581   16589
   16580   16578   16581   16583   16581   16589   16592   16593
   16581   16583   16584   16586   16581   16583   16584   16585
   16582   16581   16589   16590   16582   16581   16589   16591
   16582   16581   16589   16592   16582   16581   16583   16584
   16583   16584   16586   16587   16583   16584   16586   16588
   16583   16584   16586   16598   16583   16581   16589   16590
   16583   16581   16589   16591   16583   16581   16589   16592
   16584   16586   16598   16599   16584   16586   16598   16600
   16584   16586   16598   16601   16585   16584   16586   16587
   16585   16584   16586   16588   16585   16584   16586   16598
   16586   16598   16601   16602   16586   16598   16601   16603
   16586   16598   16601   16604   16587   16586   16598   16599
   16587   16586   16598   16600   16587   16586   16598   16601
   16588   16586   16598   16599   16588   16586   16598   16600
   16588   16586   16598   16601   16589   16581   16583   16584
   16589   16592   16593   16595   16589   16592   16593   16594
   16590   16589   16592   16593   16591   16589   16592   16593
   16592   16593   16595   16596   16592   16593   16595   16597
   16592   16593   16595   16635   16593   16595   16635   16636
   16593   16595   16635   16637   16593   16595   16635   16638
   16594   16593   16595   16596   16594   16593   16595   16597
   16594   16593   16595   16635   16595   16635   16638   16639
   16595   16635   16638   16640   16595   16635   16638   16641
   16596   16595   16635   16636   16596   16595   16635   16637
   16596   16595   16635   16638   16597   16595   16635   16636
   16597   16595   16635   16637   16597   16595   16635   16638
   16598   16601   16604   16605   16598   16601   16604   16606
   16598   16601   16604   16607   16599   16598   16601   16602
   16599   16598   16601   16603   16599   16598   16601   16604
   16600   16598   16601   16602   16600   16598   16601   16603
   16600   16598   16601   16604   16601   16604   16607   16608
   16601   16604   16607   16609   16601   16604   16607   16610
   16602   16601   16604   16605   16602   16601   16604   16606
   16602   16601   16604   16607   16603   16601   16604   16605
   16603   16601   16604   16606   16603   16601   16604   16607
   16604   16607   16610   16611   16604   16607   16610   16612
   16604   16607   16610   16613   16605   16604   16607   16608
   16605   16604   16607   16609   16605   16604   16607   16610
   16606   16604   16607   16608   16606   16604   16607   16609
   16606   16604   16607   16610   16607   16610   16613   16614
   16607   16610   16613   16615   16607   16610   16613   16616
   16608   16607   16610   16611   16608   16607   16610   16612
   16608   16607   16610   16613   16609   16607   16610   16611
   16609   16607   16610   16612   16609   16607   16610   16613
   16610   16613   16616   16617   16610   16613   16616   16618
   16610   16613   16616   16619   16611   16610   16613   16614
   16611   16610   16613   16615   16611   16610   16613   16616
   16612   16610   16613   16614   16612   16610   16613   16615
   16612   16610   16613   16616   16613   16616   16619   16620
   16613   16616   16619   16621   16613   16616   16619   16622
   16614   16613   16616   16617   16614   16613   16616   16618
   16614   16613   16616   16619   16615   16613   16616   16617
   16615   16613   16616   16618   16615   16613   16616   16619
   16616   16619   16622   16623   16616   16619   16622   16624
   16616   16619   16622   16625   16617   16616   16619   16620
   16617   16616   16619   16621   16617   16616   16619   16622
   16618   16616   16619   16620   16618   16616   16619   16621
   16618   16616   16619   16622   16619   16622   16625   16626
   16619   16622   16625   16627   16619   16622   16625   16628
   16620   16619   16622   16623   16620   16619   16622   16624
   16620   16619   16622   16625   16621   16619   16622   16623
   16621   16619   16622   16624   16621   16619   16622   16625
   16622   16625   16628   16629   16622   16625   16628   16630
   16622   16625   16628   16631   16623   16622   16625   16626
   16623   16622   16625   16627   16623   16622   16625   16628
   16624   16622   16625   16626   16624   16622   16625   16627
   16624   16622   16625   16628   16625   16628   16631   16632
   16625   16628   16631   16633   16625   16628   16631   16634
   16626   16625   16628   16629   16626   16625   16628   16630
   16626   16625   16628   16631   16627   16625   16628   16629
   16627   16625   16628   16630   16627   16625   16628   16631
   16629   16628   16631   16632   16629   16628   16631   16633
   16629   16628   16631   16634   16630   16628   16631   16632
   16630   16628   16631   16633   16630   16628   16631   16634
   16635   16638   16641   16642   16635   16638   16641   16643
   16635   16638   16641   16644   16636   16635   16638   16639
   16636   16635   16638   16640   16636   16635   16638   16641
   16637   16635   16638   16639   16637   16635   16638   16640
   16637   16635   16638   16641   16638   16641   16644   16645
   16638   16641   16644   16646   16638   16641   16644   16647
   16639   16638   16641   16642   16639   16638   16641   16643
   16639   16638   16641   16644   16640   16638   16641   16642
   16640   16638   16641   16643   16640   16638   16641   16644
   16641   16644   16647   16648   16641   16644   16647   16649
   16641   16644   16647   16650   16642   16641   16644   16645
   16642   16641   16644   16646   16642   16641   16644   16647
   16643   16641   16644   16645   16643   16641   16644   16646
   16643   16641   16644   16647   16644   16647   16650   16651
   16644   16647   16650   16652   16644   16647   16650   16653
   16645   16644   16647   16648   16645   16644   16647   16649
   16645   16644   16647   16650   16646   16644   16647   16648
   16646   16644   16647   16649   16646   16644   16647   16650
   16647   16650   16653   16654   16647   16650   16653   16655
   16647   16650   16653   16656   16648   16647   16650   16651
   16648   16647   16650   16652   16648   16647   16650   16653
   16649   16647   16650   16651   16649   16647   16650   16652
   16649   16647   16650   16653   16650   16653   16656   16657
   16650   16653   16656   16658   16650   16653   16656   16659
   16651   16650   16653   16654   16651   16650   16653   16655
   16651   16650   16653   16656   16652   16650   16653   16654
   16652   16650   16653   16655   16652   16650   16653   16656
   16653   16656   16659   16660   16653   16656   16659   16661
   16653   16656   16659   16662   16654   16653   16656   16657
   16654   16653   16656   16658   16654   16653   16656   16659
   16655   16653   16656   16657   16655   16653   16656   16658
   16655   16653   16656   16659   16656   16659   16662   16663
   16656   16659   16662   16664   16656   16659   16662   16665
   16657   16656   16659   16660   16657   16656   16659   16661
   16657   16656   16659   16662   16658   16656   16659   16660
   16658   16656   16659   16661   16658   16656   16659   16662
   16659   16662   16665   16666   16659   16662   16665   16667
   16659   16662   16665   16668   16660   16659   16662   16663
   16660   16659   16662   16664   16660   16659   16662   16665
   16661   16659   16662   16663   16661   16659   16662   16664
   16661   16659   16662   16665   16662   16665   16668   16669
   16662   16665   16668   16670   16662   16665   16668   16671
   16663   16662   16665   16666   16663   16662   16665   16667
   16663   16662   16665   16668   16664   16662   16665   16666
   16664   16662   16665   16667   16664   16662   16665   16668
   16666   16665   16668   16669   16666   16665   16668   16670
   16666   16665   16668   16671   16667   16665   16668   16669
   16667   16665   16668   16670   16667   16665   16668   16671
   16672   16685   16688   16689   16672   16685   16688   16690
   16672   16685   16688   16695   16673   16672   16677   16678
   16673   16672   16677   16679   16673   16672   16677   16680
   16673   16672   16681   16682   16673   16672   16681   16683
   16673   16672   16681   16684   16673   16672   16685   16686
   16673   16672   16685   16687   16673   16672   16685   16688
   16677   16672   16673   16674   16677   16672   16673   16675
   16677   16672   16673   16676   16677   16672   16681   16682
   16677   16672   16681   16683   16677   16672   16681   16684
   16677   16672   16685   16686   16677   16672   16685   16687
   16677   16672   16685   16688   16681   16672   16673   16674
   16681   16672   16673   16675   16681   16672   16673   16676
   16681   16672   16677   16678   16681   16672   16677   16679
   16681   16672   16677   16680   16681   16672   16685   16686
   16681   16672   16685   16687   16681   16672   16685   16688
   16685   16672   16673   16674   16685   16672   16673   16675
   16685   16672   16673   16676   16685   16672   16677   16678
   16685   16672   16677   16679   16685   16672   16677   16680
   16685   16672   16681   16682   16685   16672   16681   16683
   16685   16672   16681   16684   16685   16688   16695   16691
   16686   16685   16688   16689   16686   16685   16688   16690
   16686   16685   16688   16695   16687   16685   16688   16689
   16687   16685   16688   16690   16687   16685   16688   16695
   16689   16688   16695   16691   16690   16688   16695   16691
   16691   16694   16696   16697   16691   16694   16696   16698
   16691   16694   16696   16699   16692   16691   16695   16688
   16692   16691   16694   16696   16693   16691   16695   16688
   16693   16691   16694   16696   16694   16691   16695   16688
   16694   16696   16699   16700   16694   16696   16699   16707
   16694   16696   16699   16701   16695   16691   16694   16696
   16696   16699   16707   16708   16696   16699   16707   16709
   16696   16699   16707   16710   16696   16699   16701   16702
   16697   16696   16699   16700   16697   16696   16699   16707
   16697   16696   16699   16701   16698   16696   16699   16700
   16698   16696   16699   16707   16698   16696   16699   16701
   16699   16707   16710   16711   16699   16701   16702   16704
   16699   16701   16702   16703   16700   16699   16707   16708
   16700   16699   16707   16709   16700   16699   16707   16710
   16700   16699   16701   16702   16701   16702   16704   16705
   16701   16702   16704   16706   16701   16702   16704   16716
   16701   16699   16707   16708   16701   16699   16707   16709
   16701   16699   16707   16710   16702   16704   16716   16717
   16702   16704   16716   16718   16702   16704   16716   16719
   16703   16702   16704   16705   16703   16702   16704   16706
   16703   16702   16704   16716   16704   16716   16719   16720
   16704   16716   16719   16721   16704   16716   16719   16722
   16705   16704   16716   16717   16705   16704   16716   16718
   16705   16704   16716   16719   16706   16704   16716   16717
   16706   16704   16716   16718   16706   16704   16716   16719
   16707   16699   16701   16702   16707   16710   16711   16713
   16707   16710   16711   16712   16708   16707   16710   16711
   16709   16707   16710   16711   16710   16711   16713   16714
   16710   16711   16713   16715   16710   16711   16713   16753
   16711   16713   16753   16754   16711   16713   16753   16755
   16711   16713   16753   16756   16712   16711   16713   16714
   16712   16711   16713   16715   16712   16711   16713   16753
   16713   16753   16756   16757   16713   16753   16756   16758
   16713   16753   16756   16759   16714   16713   16753   16754
   16714   16713   16753   16755   16714   16713   16753   16756
   16715   16713   16753   16754   16715   16713   16753   16755
   16715   16713   16753   16756   16716   16719   16722   16723
   16716   16719   16722   16724   16716   16719   16722   16725
   16717   16716   16719   16720   16717   16716   16719   16721
   16717   16716   16719   16722   16718   16716   16719   16720
   16718   16716   16719   16721   16718   16716   16719   16722
   16719   16722   16725   16726   16719   16722   16725   16727
   16719   16722   16725   16728   16720   16719   16722   16723
   16720   16719   16722   16724   16720   16719   16722   16725
   16721   16719   16722   16723   16721   16719   16722   16724
   16721   16719   16722   16725   16722   16725   16728   16729
   16722   16725   16728   16730   16722   16725   16728   16731
   16723   16722   16725   16726   16723   16722   16725   16727
   16723   16722   16725   16728   16724   16722   16725   16726
   16724   16722   16725   16727   16724   16722   16725   16728
   16725   16728   16731   16732   16725   16728   16731   16733
   16725   16728   16731   16734   16726   16725   16728   16729
   16726   16725   16728   16730   16726   16725   16728   16731
   16727   16725   16728   16729   16727   16725   16728   16730
   16727   16725   16728   16731   16728   16731   16734   16735
   16728   16731   16734   16736   16728   16731   16734   16737
   16729   16728   16731   16732   16729   16728   16731   16733
   16729   16728   16731   16734   16730   16728   16731   16732
   16730   16728   16731   16733   16730   16728   16731   16734
   16731   16734   16737   16738   16731   16734   16737   16739
   16731   16734   16737   16740   16732   16731   16734   16735
   16732   16731   16734   16736   16732   16731   16734   16737
   16733   16731   16734   16735   16733   16731   16734   16736
   16733   16731   16734   16737   16734   16737   16740   16741
   16734   16737   16740   16742   16734   16737   16740   16743
   16735   16734   16737   16738   16735   16734   16737   16739
   16735   16734   16737   16740   16736   16734   16737   16738
   16736   16734   16737   16739   16736   16734   16737   16740
   16737   16740   16743   16744   16737   16740   16743   16745
   16737   16740   16743   16746   16738   16737   16740   16741
   16738   16737   16740   16742   16738   16737   16740   16743
   16739   16737   16740   16741   16739   16737   16740   16742
   16739   16737   16740   16743   16740   16743   16746   16747
   16740   16743   16746   16748   16740   16743   16746   16749
   16741   16740   16743   16744   16741   16740   16743   16745
   16741   16740   16743   16746   16742   16740   16743   16744
   16742   16740   16743   16745   16742   16740   16743   16746
   16743   16746   16749   16750   16743   16746   16749   16751
   16743   16746   16749   16752   16744   16743   16746   16747
   16744   16743   16746   16748   16744   16743   16746   16749
   16745   16743   16746   16747   16745   16743   16746   16748
   16745   16743   16746   16749   16747   16746   16749   16750
   16747   16746   16749   16751   16747   16746   16749   16752
   16748   16746   16749   16750   16748   16746   16749   16751
   16748   16746   16749   16752   16753   16756   16759   16760
   16753   16756   16759   16761   16753   16756   16759   16762
   16754   16753   16756   16757   16754   16753   16756   16758
   16754   16753   16756   16759   16755   16753   16756   16757
   16755   16753   16756   16758   16755   16753   16756   16759
   16756   16759   16762   16763   16756   16759   16762   16764
   16756   16759   16762   16765   16757   16756   16759   16760
   16757   16756   16759   16761   16757   16756   16759   16762
   16758   16756   16759   16760   16758   16756   16759   16761
   16758   16756   16759   16762   16759   16762   16765   16766
   16759   16762   16765   16767   16759   16762   16765   16768
   16760   16759   16762   16763   16760   16759   16762   16764
   16760   16759   16762   16765   16761   16759   16762   16763
   16761   16759   16762   16764   16761   16759   16762   16765
   16762   16765   16768   16769   16762   16765   16768   16770
   16762   16765   16768   16771   16763   16762   16765   16766
   16763   16762   16765   16767   16763   16762   16765   16768
   16764   16762   16765   16766   16764   16762   16765   16767
   16764   16762   16765   16768   16765   16768   16771   16772
   16765   16768   16771   16773   16765   16768   16771   16774
   16766   16765   16768   16769   16766   16765   16768   16770
   16766   16765   16768   16771   16767   16765   16768   16769
   16767   16765   16768   16770   16767   16765   16768   16771
   16768   16771   16774   16775   16768   16771   16774   16776
   16768   16771   16774   16777   16769   16768   16771   16772
   16769   16768   16771   16773   16769   16768   16771   16774
   16770   16768   16771   16772   16770   16768   16771   16773
   16770   16768   16771   16774   16771   16774   16777   16778
   16771   16774   16777   16779   16771   16774   16777   16780
   16772   16771   16774   16775   16772   16771   16774   16776
   16772   16771   16774   16777   16773   16771   16774   16775
   16773   16771   16774   16776   16773   16771   16774   16777
   16774   16777   16780   16781   16774   16777   16780   16782
   16774   16777   16780   16783   16775   16774   16777   16778
   16775   16774   16777   16779   16775   16774   16777   16780
   16776   16774   16777   16778   16776   16774   16777   16779
   16776   16774   16777   16780   16777   16780   16783   16784
   16777   16780   16783   16785   16777   16780   16783   16786
   16778   16777   16780   16781   16778   16777   16780   16782
   16778   16777   16780   16783   16779   16777   16780   16781
   16779   16777   16780   16782   16779   16777   16780   16783
   16780   16783   16786   16787   16780   16783   16786   16788
   16780   16783   16786   16789   16781   16780   16783   16784
   16781   16780   16783   16785   16781   16780   16783   16786
   16782   16780   16783   16784   16782   16780   16783   16785
   16782   16780   16783   16786   16784   16783   16786   16787
   16784   16783   16786   16788   16784   16783   16786   16789
   16785   16783   16786   16787   16785   16783   16786   16788
   16785   16783   16786   16789   16790   16803   16806   16807
   16790   16803   16806   16808   16790   16803   16806   16813
   16791   16790   16795   16796   16791   16790   16795   16797
   16791   16790   16795   16798   16791   16790   16799   16800
   16791   16790   16799   16801   16791   16790   16799   16802
   16791   16790   16803   16804   16791   16790   16803   16805
   16791   16790   16803   16806   16795   16790   16791   16792
   16795   16790   16791   16793   16795   16790   16791   16794
   16795   16790   16799   16800   16795   16790   16799   16801
   16795   16790   16799   16802   16795   16790   16803   16804
   16795   16790   16803   16805   16795   16790   16803   16806
   16799   16790   16791   16792   16799   16790   16791   16793
   16799   16790   16791   16794   16799   16790   16795   16796
   16799   16790   16795   16797   16799   16790   16795   16798
   16799   16790   16803   16804   16799   16790   16803   16805
   16799   16790   16803   16806   16803   16790   16791   16792
   16803   16790   16791   16793   16803   16790   16791   16794
   16803   16790   16795   16796   16803   16790   16795   16797
   16803   16790   16795   16798   16803   16790   16799   16800
   16803   16790   16799   16801   16803   16790   16799   16802
   16803   16806   16813   16809   16804   16803   16806   16807
   16804   16803   16806   16808   16804   16803   16806   16813
   16805   16803   16806   16807   16805   16803   16806   16808
   16805   16803   16806   16813   16807   16806   16813   16809
   16808   16806   16813   16809   16809   16812   16814   16815
   16809   16812   16814   16816   16809   16812   16814   16817
   16810   16809   16813   16806   16810   16809   16812   16814
   16811   16809   16813   16806   16811   16809   16812   16814
   16812   16809   16813   16806   16812   16814   16817   16818
   16812   16814   16817   16825   16812   16814   16817   16819
   16813   16809   16812   16814   16814   16817   16825   16826
   16814   16817   16825   16827   16814   16817   16825   16828
   16814   16817   16819   16820   16815   16814   16817   16818
   16815   16814   16817   16825   16815   16814   16817   16819
   16816   16814   16817   16818   16816   16814   16817   16825
   16816   16814   16817   16819   16817   16825   16828   16829
   16817   16819   16820   16822   16817   16819   16820   16821
   16818   16817   16825   16826   16818   16817   16825   16827
   16818   16817   16825   16828   16818   16817   16819   16820
   16819   16820   16822   16823   16819   16820   16822   16824
   16819   16820   16822   16834   16819   16817   16825   16826
   16819   16817   16825   16827   16819   16817   16825   16828
   16820   16822   16834   16835   16820   16822   16834   16836
   16820   16822   16834   16837   16821   16820   16822   16823
   16821   16820   16822   16824   16821   16820   16822   16834
   16822   16834   16837   16838   16822   16834   16837   16839
   16822   16834   16837   16840   16823   16822   16834   16835
   16823   16822   16834   16836   16823   16822   16834   16837
   16824   16822   16834   16835   16824   16822   16834   16836
   16824   16822   16834   16837   16825   16817   16819   16820
   16825   16828   16829   16831   16825   16828   16829   16830
   16826   16825   16828   16829   16827   16825   16828   16829
   16828   16829   16831   16832   16828   16829   16831   16833
   16828   16829   16831   16871   16829   16831   16871   16872
   16829   16831   16871   16873   16829   16831   16871   16874
   16830   16829   16831   16832   16830   16829   16831   16833
   16830   16829   16831   16871   16831   16871   16874   16875
   16831   16871   16874   16876   16831   16871   16874   16877
   16832   16831   16871   16872   16832   16831   16871   16873
   16832   16831   16871   16874   16833   16831   16871   16872
   16833   16831   16871   16873   16833   16831   16871   16874
   16834   16837   16840   16841   16834   16837   16840   16842
   16834   16837   16840   16843   16835   16834   16837   16838
   16835   16834   16837   16839   16835   16834   16837   16840
   16836   16834   16837   16838   16836   16834   16837   16839
   16836   16834   16837   16840   16837   16840   16843   16844
   16837   16840   16843   16845   16837   16840   16843   16846
   16838   16837   16840   16841   16838   16837   16840   16842
   16838   16837   16840   16843   16839   16837   16840   16841
   16839   16837   16840   16842   16839   16837   16840   16843
   16840   16843   16846   16847   16840   16843   16846   16848
   16840   16843   16846   16849   16841   16840   16843   16844
   16841   16840   16843   16845   16841   16840   16843   16846
   16842   16840   16843   16844   16842   16840   16843   16845
   16842   16840   16843   16846   16843   16846   16849   16850
   16843   16846   16849   16851   16843   16846   16849   16852
   16844   16843   16846   16847   16844   16843   16846   16848
   16844   16843   16846   16849   16845   16843   16846   16847
   16845   16843   16846   16848   16845   16843   16846   16849
   16846   16849   16852   16853   16846   16849   16852   16854
   16846   16849   16852   16855   16847   16846   16849   16850
   16847   16846   16849   16851   16847   16846   16849   16852
   16848   16846   16849   16850   16848   16846   16849   16851
   16848   16846   16849   16852   16849   16852   16855   16856
   16849   16852   16855   16857   16849   16852   16855   16858
   16850   16849   16852   16853   16850   16849   16852   16854
   16850   16849   16852   16855   16851   16849   16852   16853
   16851   16849   16852   16854   16851   16849   16852   16855
   16852   16855   16858   16859   16852   16855   16858   16860
   16852   16855   16858   16861   16853   16852   16855   16856
   16853   16852   16855   16857   16853   16852   16855   16858
   16854   16852   16855   16856   16854   16852   16855   16857
   16854   16852   16855   16858   16855   16858   16861   16862
   16855   16858   16861   16863   16855   16858   16861   16864
   16856   16855   16858   16859   16856   16855   16858   16860
   16856   16855   16858   16861   16857   16855   16858   16859
   16857   16855   16858   16860   16857   16855   16858   16861
   16858   16861   16864   16865   16858   16861   16864   16866
   16858   16861   16864   16867   16859   16858   16861   16862
   16859   16858   16861   16863   16859   16858   16861   16864
   16860   16858   16861   16862   16860   16858   16861   16863
   16860   16858   16861   16864   16861   16864   16867   16868
   16861   16864   16867   16869   16861   16864   16867   16870
   16862   16861   16864   16865   16862   16861   16864   16866
   16862   16861   16864   16867   16863   16861   16864   16865
   16863   16861   16864   16866   16863   16861   16864   16867
   16865   16864   16867   16868   16865   16864   16867   16869
   16865   16864   16867   16870   16866   16864   16867   16868
   16866   16864   16867   16869   16866   16864   16867   16870
   16871   16874   16877   16878   16871   16874   16877   16879
   16871   16874   16877   16880   16872   16871   16874   16875
   16872   16871   16874   16876   16872   16871   16874   16877
   16873   16871   16874   16875   16873   16871   16874   16876
   16873   16871   16874   16877   16874   16877   16880   16881
   16874   16877   16880   16882   16874   16877   16880   16883
   16875   16874   16877   16878   16875   16874   16877   16879
   16875   16874   16877   16880   16876   16874   16877   16878
   16876   16874   16877   16879   16876   16874   16877   16880
   16877   16880   16883   16884   16877   16880   16883   16885
   16877   16880   16883   16886   16878   16877   16880   16881
   16878   16877   16880   16882   16878   16877   16880   16883
   16879   16877   16880   16881   16879   16877   16880   16882
   16879   16877   16880   16883   16880   16883   16886   16887
   16880   16883   16886   16888   16880   16883   16886   16889
   16881   16880   16883   16884   16881   16880   16883   16885
   16881   16880   16883   16886   16882   16880   16883   16884
   16882   16880   16883   16885   16882   16880   16883   16886
   16883   16886   16889   16890   16883   16886   16889   16891
   16883   16886   16889   16892   16884   16883   16886   16887
   16884   16883   16886   16888   16884   16883   16886   16889
   16885   16883   16886   16887   16885   16883   16886   16888
   16885   16883   16886   16889   16886   16889   16892   16893
   16886   16889   16892   16894   16886   16889   16892   16895
   16887   16886   16889   16890   16887   16886   16889   16891
   16887   16886   16889   16892   16888   16886   16889   16890
   16888   16886   16889   16891   16888   16886   16889   16892
   16889   16892   16895   16896   16889   16892   16895   16897
   16889   16892   16895   16898   16890   16889   16892   16893
   16890   16889   16892   16894   16890   16889   16892   16895
   16891   16889   16892   16893   16891   16889   16892   16894
   16891   16889   16892   16895   16892   16895   16898   16899
   16892   16895   16898   16900   16892   16895   16898   16901
   16893   16892   16895   16896   16893   16892   16895   16897
   16893   16892   16895   16898   16894   16892   16895   16896
   16894   16892   16895   16897   16894   16892   16895   16898
   16895   16898   16901   16902   16895   16898   16901   16903
   16895   16898   16901   16904   16896   16895   16898   16899
   16896   16895   16898   16900   16896   16895   16898   16901
   16897   16895   16898   16899   16897   16895   16898   16900
   16897   16895   16898   16901   16898   16901   16904   16905
   16898   16901   16904   16906   16898   16901   16904   16907
   16899   16898   16901   16902   16899   16898   16901   16903
   16899   16898   16901   16904   16900   16898   16901   16902
   16900   16898   16901   16903   16900   16898   16901   16904
   16902   16901   16904   16905   16902   16901   16904   16906
   16902   16901   16904   16907   16903   16901   16904   16905
   16903   16901   16904   16906   16903   16901   16904   16907
   16908   16921   16924   16925   16908   16921   16924   16926
   16908   16921   16924   16931   16909   16908   16913   16914
   16909   16908   16913   16915   16909   16908   16913   16916
   16909   16908   16917   16918   16909   16908   16917   16919
   16909   16908   16917   16920   16909   16908   16921   16922
   16909   16908   16921   16923   16909   16908   16921   16924
   16913   16908   16909   16910   16913   16908   16909   16911
   16913   16908   16909   16912   16913   16908   16917   16918
   16913   16908   16917   16919   16913   16908   16917   16920
   16913   16908   16921   16922   16913   16908   16921   16923
   16913   16908   16921   16924   16917   16908   16909   16910
   16917   16908   16909   16911   16917   16908   16909   16912
   16917   16908   16913   16914   16917   16908   16913   16915
   16917   16908   16913   16916   16917   16908   16921   16922
   16917   16908   16921   16923   16917   16908   16921   16924
   16921   16908   16909   16910   16921   16908   16909   16911
   16921   16908   16909   16912   16921   16908   16913   16914
   16921   16908   16913   16915   16921   16908   16913   16916
   16921   16908   16917   16918   16921   16908   16917   16919
   16921   16908   16917   16920   16921   16924   16931   16927
   16922   16921   16924   16925   16922   16921   16924   16926
   16922   16921   16924   16931   16923   16921   16924   16925
   16923   16921   16924   16926   16923   16921   16924   16931
   16925   16924   16931   16927   16926   16924   16931   16927
   16927   16930   16932   16933   16927   16930   16932   16934
   16927   16930   16932   16935   16928   16927   16931   16924
   16928   16927   16930   16932   16929   16927   16931   16924
   16929   16927   16930   16932   16930   16927   16931   16924
   16930   16932   16935   16936   16930   16932   16935   16943
   16930   16932   16935   16937   16931   16927   16930   16932
   16932   16935   16943   16944   16932   16935   16943   16945
   16932   16935   16943   16946   16932   16935   16937   16938
   16933   16932   16935   16936   16933   16932   16935   16943
   16933   16932   16935   16937   16934   16932   16935   16936
   16934   16932   16935   16943   16934   16932   16935   16937
   16935   16943   16946   16947   16935   16937   16938   16940
   16935   16937   16938   16939   16936   16935   16943   16944
   16936   16935   16943   16945   16936   16935   16943   16946
   16936   16935   16937   16938   16937   16938   16940   16941
   16937   16938   16940   16942   16937   16938   16940   16952
   16937   16935   16943   16944   16937   16935   16943   16945
   16937   16935   16943   16946   16938   16940   16952   16953
   16938   16940   16952   16954   16938   16940   16952   16955
   16939   16938   16940   16941   16939   16938   16940   16942
   16939   16938   16940   16952   16940   16952   16955   16956
   16940   16952   16955   16957   16940   16952   16955   16958
   16941   16940   16952   16953   16941   16940   16952   16954
   16941   16940   16952   16955   16942   16940   16952   16953
   16942   16940   16952   16954   16942   16940   16952   16955
   16943   16935   16937   16938   16943   16946   16947   16949
   16943   16946   16947   16948   16944   16943   16946   16947
   16945   16943   16946   16947   16946   16947   16949   16950
   16946   16947   16949   16951   16946   16947   16949   16989
   16947   16949   16989   16990   16947   16949   16989   16991
   16947   16949   16989   16992   16948   16947   16949   16950
   16948   16947   16949   16951   16948   16947   16949   16989
   16949   16989   16992   16993   16949   16989   16992   16994
   16949   16989   16992   16995   16950   16949   16989   16990
   16950   16949   16989   16991   16950   16949   16989   16992
   16951   16949   16989   16990   16951   16949   16989   16991
   16951   16949   16989   16992   16952   16955   16958   16959
   16952   16955   16958   16960   16952   16955   16958   16961
   16953   16952   16955   16956   16953   16952   16955   16957
   16953   16952   16955   16958   16954   16952   16955   16956
   16954   16952   16955   16957   16954   16952   16955   16958
   16955   16958   16961   16962   16955   16958   16961   16963
   16955   16958   16961   16964   16956   16955   16958   16959
   16956   16955   16958   16960   16956   16955   16958   16961
   16957   16955   16958   16959   16957   16955   16958   16960
   16957   16955   16958   16961   16958   16961   16964   16965
   16958   16961   16964   16966   16958   16961   16964   16967
   16959   16958   16961   16962   16959   16958   16961   16963
   16959   16958   16961   16964   16960   16958   16961   16962
   16960   16958   16961   16963   16960   16958   16961   16964
   16961   16964   16967   16968   16961   16964   16967   16969
   16961   16964   16967   16970   16962   16961   16964   16965
   16962   16961   16964   16966   16962   16961   16964   16967
   16963   16961   16964   16965   16963   16961   16964   16966
   16963   16961   16964   16967   16964   16967   16970   16971
   16964   16967   16970   16972   16964   16967   16970   16973
   16965   16964   16967   16968   16965   16964   16967   16969
   16965   16964   16967   16970   16966   16964   16967   16968
   16966   16964   16967   16969   16966   16964   16967   16970
   16967   16970   16973   16974   16967   16970   16973   16975
   16967   16970   16973   16976   16968   16967   16970   16971
   16968   16967   16970   16972   16968   16967   16970   16973
   16969   16967   16970   16971   16969   16967   16970   16972
   16969   16967   16970   16973   16970   16973   16976   16977
   16970   16973   16976   16978   16970   16973   16976   16979
   16971   16970   16973   16974   16971   16970   16973   16975
   16971   16970   16973   16976   16972   16970   16973   16974
   16972   16970   16973   16975   16972   16970   16973   16976
   16973   16976   16979   16980   16973   16976   16979   16981
   16973   16976   16979   16982   16974   16973   16976   16977
   16974   16973   16976   16978   16974   16973   16976   16979
   16975   16973   16976   16977   16975   16973   16976   16978
   16975   16973   16976   16979   16976   16979   16982   16983
   16976   16979   16982   16984   16976   16979   16982   16985
   16977   16976   16979   16980   16977   16976   16979   16981
   16977   16976   16979   16982   16978   16976   16979   16980
   16978   16976   16979   16981   16978   16976   16979   16982
   16979   16982   16985   16986   16979   16982   16985   16987
   16979   16982   16985   16988   16980   16979   16982   16983
   16980   16979   16982   16984   16980   16979   16982   16985
   16981   16979   16982   16983   16981   16979   16982   16984
   16981   16979   16982   16985   16983   16982   16985   16986
   16983   16982   16985   16987   16983   16982   16985   16988
   16984   16982   16985   16986   16984   16982   16985   16987
   16984   16982   16985   16988   16989   16992   16995   16996
   16989   16992   16995   16997   16989   16992   16995   16998
   16990   16989   16992   16993   16990   16989   16992   16994
   16990   16989   16992   16995   16991   16989   16992   16993
   16991   16989   16992   16994   16991   16989   16992   16995
   16992   16995   16998   16999   16992   16995   16998   17000
   16992   16995   16998   17001   16993   16992   16995   16996
   16993   16992   16995   16997   16993   16992   16995   16998
   16994   16992   16995   16996   16994   16992   16995   16997
   16994   16992   16995   16998   16995   16998   17001   17002
   16995   16998   17001   17003   16995   16998   17001   17004
   16996   16995   16998   16999   16996   16995   16998   17000
   16996   16995   16998   17001   16997   16995   16998   16999
   16997   16995   16998   17000   16997   16995   16998   17001
   16998   17001   17004   17005   16998   17001   17004   17006
   16998   17001   17004   17007   16999   16998   17001   17002
   16999   16998   17001   17003   16999   16998   17001   17004
   17000   16998   17001   17002   17000   16998   17001   17003
   17000   16998   17001   17004   17001   17004   17007   17008
   17001   17004   17007   17009   17001   17004   17007   17010
   17002   17001   17004   17005   17002   17001   17004   17006
   17002   17001   17004   17007   17003   17001   17004   17005
   17003   17001   17004   17006   17003   17001   17004   17007
   17004   17007   17010   17011   17004   17007   17010   17012
   17004   17007   17010   17013   17005   17004   17007   17008
   17005   17004   17007   17009   17005   17004   17007   17010
   17006   17004   17007   17008   17006   17004   17007   17009
   17006   17004   17007   17010   17007   17010   17013   17014
   17007   17010   17013   17015   17007   17010   17013   17016
   17008   17007   17010   17011   17008   17007   17010   17012
   17008   17007   17010   17013   17009   17007   17010   17011
   17009   17007   17010   17012   17009   17007   17010   17013
   17010   17013   17016   17017   17010   17013   17016   17018
   17010   17013   17016   17019   17011   17010   17013   17014
   17011   17010   17013   17015   17011   17010   17013   17016
   17012   17010   17013   17014   17012   17010   17013   17015
   17012   17010   17013   17016   17013   17016   17019   17020
   17013   17016   17019   17021   17013   17016   17019   17022
   17014   17013   17016   17017   17014   17013   17016   17018
   17014   17013   17016   17019   17015   17013   17016   17017
   17015   17013   17016   17018   17015   17013   17016   17019
   17016   17019   17022   17023   17016   17019   17022   17024
   17016   17019   17022   17025   17017   17016   17019   17020
   17017   17016   17019   17021   17017   17016   17019   17022
   17018   17016   17019   17020   17018   17016   17019   17021
   17018   17016   17019   17022   17020   17019   17022   17023
   17020   17019   17022   17024   17020   17019   17022   17025
   17021   17019   17022   17023   17021   17019   17022   17024
   17021   17019   17022   17025   17026   17039   17042   17043
   17026   17039   17042   17044   17026   17039   17042   17049
   17027   17026   17031   17032   17027   17026   17031   17033
   17027   17026   17031   17034   17027   17026   17035   17036
   17027   17026   17035   17037   17027   17026   17035   17038
   17027   17026   17039   17040   17027   17026   17039   17041
   17027   17026   17039   17042   17031   17026   17027   17028
   17031   17026   17027   17029   17031   17026   17027   17030
   17031   17026   17035   17036   17031   17026   17035   17037
   17031   17026   17035   17038   17031   17026   17039   17040
   17031   17026   17039   17041   17031   17026   17039   17042
   17035   17026   17027   17028   17035   17026   17027   17029
   17035   17026   17027   17030   17035   17026   17031   17032
   17035   17026   17031   17033   17035   17026   17031   17034
   17035   17026   17039   17040   17035   17026   17039   17041
   17035   17026   17039   17042   17039   17026   17027   17028
   17039   17026   17027   17029   17039   17026   17027   17030
   17039   17026   17031   17032   17039   17026   17031   17033
   17039   17026   17031   17034   17039   17026   17035   17036
   17039   17026   17035   17037   17039   17026   17035   17038
   17039   17042   17049   17045   17040   17039   17042   17043
   17040   17039   17042   17044   17040   17039   17042   17049
   17041   17039   17042   17043   17041   17039   17042   17044
   17041   17039   17042   17049   17043   17042   17049   17045
   17044   17042   17049   17045   17045   17048   17050   17051
   17045   17048   17050   17052   17045   17048   17050   17053
   17046   17045   17049   17042   17046   17045   17048   17050
   17047   17045   17049   17042   17047   17045   17048   17050
   17048   17045   17049   17042   17048   17050   17053   17054
   17048   17050   17053   17061   17048   17050   17053   17055
   17049   17045   17048   17050   17050   17053   17061   17062
   17050   17053   17061   17063   17050   17053   17061   17064
   17050   17053   17055   17056   17051   17050   17053   17054
   17051   17050   17053   17061   17051   17050   17053   17055
   17052   17050   17053   17054   17052   17050   17053   17061
   17052   17050   17053   17055   17053   17061   17064   17065
   17053   17055   17056   17058   17053   17055   17056   17057
   17054   17053   17061   17062   17054   17053   17061   17063
   17054   17053   17061   17064   17054   17053   17055   17056
   17055   17056   17058   17059   17055   17056   17058   17060
   17055   17056   17058   17070   17055   17053   17061   17062
   17055   17053   17061   17063   17055   17053   17061   17064
   17056   17058   17070   17071   17056   17058   17070   17072
   17056   17058   17070   17073   17057   17056   17058   17059
   17057   17056   17058   17060   17057   17056   17058   17070
   17058   17070   17073   17074   17058   17070   17073   17075
   17058   17070   17073   17076   17059   17058   17070   17071
   17059   17058   17070   17072   17059   17058   17070   17073
   17060   17058   17070   17071   17060   17058   17070   17072
   17060   17058   17070   17073   17061   17053   17055   17056
   17061   17064   17065   17067   17061   17064   17065   17066
   17062   17061   17064   17065   17063   17061   17064   17065
   17064   17065   17067   17068   17064   17065   17067   17069
   17064   17065   17067   17107   17065   17067   17107   17108
   17065   17067   17107   17109   17065   17067   17107   17110
   17066   17065   17067   17068   17066   17065   17067   17069
   17066   17065   17067   17107   17067   17107   17110   17111
   17067   17107   17110   17112   17067   17107   17110   17113
   17068   17067   17107   17108   17068   17067   17107   17109
   17068   17067   17107   17110   17069   17067   17107   17108
   17069   17067   17107   17109   17069   17067   17107   17110
   17070   17073   17076   17077   17070   17073   17076   17078
   17070   17073   17076   17079   17071   17070   17073   17074
   17071   17070   17073   17075   17071   17070   17073   17076
   17072   17070   17073   17074   17072   17070   17073   17075
   17072   17070   17073   17076   17073   17076   17079   17080
   17073   17076   17079   17081   17073   17076   17079   17082
   17074   17073   17076   17077   17074   17073   17076   17078
   17074   17073   17076   17079   17075   17073   17076   17077
   17075   17073   17076   17078   17075   17073   17076   17079
   17076   17079   17082   17083   17076   17079   17082   17084
   17076   17079   17082   17085   17077   17076   17079   17080
   17077   17076   17079   17081   17077   17076   17079   17082
   17078   17076   17079   17080   17078   17076   17079   17081
   17078   17076   17079   17082   17079   17082   17085   17086
   17079   17082   17085   17087   17079   17082   17085   17088
   17080   17079   17082   17083   17080   17079   17082   17084
   17080   17079   17082   17085   17081   17079   17082   17083
   17081   17079   17082   17084   17081   17079   17082   17085
   17082   17085   17088   17089   17082   17085   17088   17090
   17082   17085   17088   17091   17083   17082   17085   17086
   17083   17082   17085   17087   17083   17082   17085   17088
   17084   17082   17085   17086   17084   17082   17085   17087
   17084   17082   17085   17088   17085   17088   17091   17092
   17085   17088   17091   17093   17085   17088   17091   17094
   17086   17085   17088   17089   17086   17085   17088   17090
   17086   17085   17088   17091   17087   17085   17088   17089
   17087   17085   17088   17090   17087   17085   17088   17091
   17088   17091   17094   17095   17088   17091   17094   17096
   17088   17091   17094   17097   17089   17088   17091   17092
   17089   17088   17091   17093   17089   17088   17091   17094
   17090   17088   17091   17092   17090   17088   17091   17093
   17090   17088   17091   17094   17091   17094   17097   17098
   17091   17094   17097   17099   17091   17094   17097   17100
   17092   17091   17094   17095   17092   17091   17094   17096
   17092   17091   17094   17097   17093   17091   17094   17095
   17093   17091   17094   17096   17093   17091   17094   17097
   17094   17097   17100   17101   17094   17097   17100   17102
   17094   17097   17100   17103   17095   17094   17097   17098
   17095   17094   17097   17099   17095   17094   17097   17100
   17096   17094   17097   17098   17096   17094   17097   17099
   17096   17094   17097   17100   17097   17100   17103   17104
   17097   17100   17103   17105   17097   17100   17103   17106
   17098   17097   17100   17101   17098   17097   17100   17102
   17098   17097   17100   17103   17099   17097   17100   17101
   17099   17097   17100   17102   17099   17097   17100   17103
   17101   17100   17103   17104   17101   17100   17103   17105
   17101   17100   17103   17106   17102   17100   17103   17104
   17102   17100   17103   17105   17102   17100   17103   17106
   17107   17110   17113   17114   17107   17110   17113   17115
   17107   17110   17113   17116   17108   17107   17110   17111
   17108   17107   17110   17112   17108   17107   17110   17113
   17109   17107   17110   17111   17109   17107   17110   17112
   17109   17107   17110   17113   17110   17113   17116   17117
   17110   17113   17116   17118   17110   17113   17116   17119
   17111   17110   17113   17114   17111   17110   17113   17115
   17111   17110   17113   17116   17112   17110   17113   17114
   17112   17110   17113   17115   17112   17110   17113   17116
   17113   17116   17119   17120   17113   17116   17119   17121
   17113   17116   17119   17122   17114   17113   17116   17117
   17114   17113   17116   17118   17114   17113   17116   17119
   17115   17113   17116   17117   17115   17113   17116   17118
   17115   17113   17116   17119   17116   17119   17122   17123
   17116   17119   17122   17124   17116   17119   17122   17125
   17117   17116   17119   17120   17117   17116   17119   17121
   17117   17116   17119   17122   17118   17116   17119   17120
   17118   17116   17119   17121   17118   17116   17119   17122
   17119   17122   17125   17126   17119   17122   17125   17127
   17119   17122   17125   17128   17120   17119   17122   17123
   17120   17119   17122   17124   17120   17119   17122   17125
   17121   17119   17122   17123   17121   17119   17122   17124
   17121   17119   17122   17125   17122   17125   17128   17129
   17122   17125   17128   17130   17122   17125   17128   17131
   17123   17122   17125   17126   17123   17122   17125   17127
   17123   17122   17125   17128   17124   17122   17125   17126
   17124   17122   17125   17127   17124   17122   17125   17128
   17125   17128   17131   17132   17125   17128   17131   17133
   17125   17128   17131   17134   17126   17125   17128   17129
   17126   17125   17128   17130   17126   17125   17128   17131
   17127   17125   17128   17129   17127   17125   17128   17130
   17127   17125   17128   17131   17128   17131   17134   17135
   17128   17131   17134   17136   17128   17131   17134   17137
   17129   17128   17131   17132   17129   17128   17131   17133
   17129   17128   17131   17134   17130   17128   17131   17132
   17130   17128   17131   17133   17130   17128   17131   17134
   17131   17134   17137   17138   17131   17134   17137   17139
   17131   17134   17137   17140   17132   17131   17134   17135
   17132   17131   17134   17136   17132   17131   17134   17137
   17133   17131   17134   17135   17133   17131   17134   17136
   17133   17131   17134   17137   17134   17137   17140   17141
   17134   17137   17140   17142   17134   17137   17140   17143
   17135   17134   17137   17138   17135   17134   17137   17139
   17135   17134   17137   17140   17136   17134   17137   17138
   17136   17134   17137   17139   17136   17134   17137   17140
   17138   17137   17140   17141   17138   17137   17140   17142
   17138   17137   17140   17143   17139   17137   17140   17141
   17139   17137   17140   17142   17139   17137   17140   17143
   17144   17157   17160   17161   17144   17157   17160   17162
   17144   17157   17160   17167   17145   17144   17149   17150
   17145   17144   17149   17151   17145   17144   17149   17152
   17145   17144   17153   17154   17145   17144   17153   17155
   17145   17144   17153   17156   17145   17144   17157   17158
   17145   17144   17157   17159   17145   17144   17157   17160
   17149   17144   17145   17146   17149   17144   17145   17147
   17149   17144   17145   17148   17149   17144   17153   17154
   17149   17144   17153   17155   17149   17144   17153   17156
   17149   17144   17157   17158   17149   17144   17157   17159
   17149   17144   17157   17160   17153   17144   17145   17146
   17153   17144   17145   17147   17153   17144   17145   17148
   17153   17144   17149   17150   17153   17144   17149   17151
   17153   17144   17149   17152   17153   17144   17157   17158
   17153   17144   17157   17159   17153   17144   17157   17160
   17157   17144   17145   17146   17157   17144   17145   17147
   17157   17144   17145   17148   17157   17144   17149   17150
   17157   17144   17149   17151   17157   17144   17149   17152
   17157   17144   17153   17154   17157   17144   17153   17155
   17157   17144   17153   17156   17157   17160   17167   17163
   17158   17157   17160   17161   17158   17157   17160   17162
   17158   17157   17160   17167   17159   17157   17160   17161
   17159   17157   17160   17162   17159   17157   17160   17167
   17161   17160   17167   17163   17162   17160   17167   17163
   17163   17166   17168   17169   17163   17166   17168   17170
   17163   17166   17168   17171   17164   17163   17167   17160
   17164   17163   17166   17168   17165   17163   17167   17160
   17165   17163   17166   17168   17166   17163   17167   17160
   17166   17168   17171   17172   17166   17168   17171   17179
   17166   17168   17171   17173   17167   17163   17166   17168
   17168   17171   17179   17180   17168   17171   17179   17181
   17168   17171   17179   17182   17168   17171   17173   17174
   17169   17168   17171   17172   17169   17168   17171   17179
   17169   17168   17171   17173   17170   17168   17171   17172
   17170   17168   17171   17179   17170   17168   17171   17173
   17171   17179   17182   17183   17171   17173   17174   17176
   17171   17173   17174   17175   17172   17171   17179   17180
   17172   17171   17179   17181   17172   17171   17179   17182
   17172   17171   17173   17174   17173   17174   17176   17177
   17173   17174   17176   17178   17173   17174   17176   17188
   17173   17171   17179   17180   17173   17171   17179   17181
   17173   17171   17179   17182   17174   17176   17188   17189
   17174   17176   17188   17190   17174   17176   17188   17191
   17175   17174   17176   17177   17175   17174   17176   17178
   17175   17174   17176   17188   17176   17188   17191   17192
   17176   17188   17191   17193   17176   17188   17191   17194
   17177   17176   17188   17189   17177   17176   17188   17190
   17177   17176   17188   17191   17178   17176   17188   17189
   17178   17176   17188   17190   17178   17176   17188   17191
   17179   17171   17173   17174   17179   17182   17183   17185
   17179   17182   17183   17184   17180   17179   17182   17183
   17181   17179   17182   17183   17182   17183   17185   17186
   17182   17183   17185   17187   17182   17183   17185   17225
   17183   17185   17225   17226   17183   17185   17225   17227
   17183   17185   17225   17228   17184   17183   17185   17186
   17184   17183   17185   17187   17184   17183   17185   17225
   17185   17225   17228   17229   17185   17225   17228   17230
   17185   17225   17228   17231   17186   17185   17225   17226
   17186   17185   17225   17227   17186   17185   17225   17228
   17187   17185   17225   17226   17187   17185   17225   17227
   17187   17185   17225   17228   17188   17191   17194   17195
   17188   17191   17194   17196   17188   17191   17194   17197
   17189   17188   17191   17192   17189   17188   17191   17193
   17189   17188   17191   17194   17190   17188   17191   17192
   17190   17188   17191   17193   17190   17188   17191   17194
   17191   17194   17197   17198   17191   17194   17197   17199
   17191   17194   17197   17200   17192   17191   17194   17195
   17192   17191   17194   17196   17192   17191   17194   17197
   17193   17191   17194   17195   17193   17191   17194   17196
   17193   17191   17194   17197   17194   17197   17200   17201
   17194   17197   17200   17202   17194   17197   17200   17203
   17195   17194   17197   17198   17195   17194   17197   17199
   17195   17194   17197   17200   17196   17194   17197   17198
   17196   17194   17197   17199   17196   17194   17197   17200
   17197   17200   17203   17204   17197   17200   17203   17205
   17197   17200   17203   17206   17198   17197   17200   17201
   17198   17197   17200   17202   17198   17197   17200   17203
   17199   17197   17200   17201   17199   17197   17200   17202
   17199   17197   17200   17203   17200   17203   17206   17207
   17200   17203   17206   17208   17200   17203   17206   17209
   17201   17200   17203   17204   17201   17200   17203   17205
   17201   17200   17203   17206   17202   17200   17203   17204
   17202   17200   17203   17205   17202   17200   17203   17206
   17203   17206   17209   17210   17203   17206   17209   17211
   17203   17206   17209   17212   17204   17203   17206   17207
   17204   17203   17206   17208   17204   17203   17206   17209
   17205   17203   17206   17207   17205   17203   17206   17208
   17205   17203   17206   17209   17206   17209   17212   17213
   17206   17209   17212   17214   17206   17209   17212   17215
   17207   17206   17209   17210   17207   17206   17209   17211
   17207   17206   17209   17212   17208   17206   17209   17210
   17208   17206   17209   17211   17208   17206   17209   17212
   17209   17212   17215   17216   17209   17212   17215   17217
   17209   17212   17215   17218   17210   17209   17212   17213
   17210   17209   17212   17214   17210   17209   17212   17215
   17211   17209   17212   17213   17211   17209   17212   17214
   17211   17209   17212   17215   17212   17215   17218   17219
   17212   17215   17218   17220   17212   17215   17218   17221
   17213   17212   17215   17216   17213   17212   17215   17217
   17213   17212   17215   17218   17214   17212   17215   17216
   17214   17212   17215   17217   17214   17212   17215   17218
   17215   17218   17221   17222   17215   17218   17221   17223
   17215   17218   17221   17224   17216   17215   17218   17219
   17216   17215   17218   17220   17216   17215   17218   17221
   17217   17215   17218   17219   17217   17215   17218   17220
   17217   17215   17218   17221   17219   17218   17221   17222
   17219   17218   17221   17223   17219   17218   17221   17224
   17220   17218   17221   17222   17220   17218   17221   17223
   17220   17218   17221   17224   17225   17228   17231   17232
   17225   17228   17231   17233   17225   17228   17231   17234
   17226   17225   17228   17229   17226   17225   17228   17230
   17226   17225   17228   17231   17227   17225   17228   17229
   17227   17225   17228   17230   17227   17225   17228   17231
   17228   17231   17234   17235   17228   17231   17234   17236
   17228   17231   17234   17237   17229   17228   17231   17232
   17229   17228   17231   17233   17229   17228   17231   17234
   17230   17228   17231   17232   17230   17228   17231   17233
   17230   17228   17231   17234   17231   17234   17237   17238
   17231   17234   17237   17239   17231   17234   17237   17240
   17232   17231   17234   17235   17232   17231   17234   17236
   17232   17231   17234   17237   17233   17231   17234   17235
   17233   17231   17234   17236   17233   17231   17234   17237
   17234   17237   17240   17241   17234   17237   17240   17242
   17234   17237   17240   17243   17235   17234   17237   17238
   17235   17234   17237   17239   17235   17234   17237   17240
   17236   17234   17237   17238   17236   17234   17237   17239
   17236   17234   17237   17240   17237   17240   17243   17244
   17237   17240   17243   17245   17237   17240   17243   17246
   17238   17237   17240   17241   17238   17237   17240   17242
   17238   17237   17240   17243   17239   17237   17240   17241
   17239   17237   17240   17242   17239   17237   17240   17243
   17240   17243   17246   17247   17240   17243   17246   17248
   17240   17243   17246   17249   17241   17240   17243   17244
   17241   17240   17243   17245   17241   17240   17243   17246
   17242   17240   17243   17244   17242   17240   17243   17245
   17242   17240   17243   17246   17243   17246   17249   17250
   17243   17246   17249   17251   17243   17246   17249   17252
   17244   17243   17246   17247   17244   17243   17246   17248
   17244   17243   17246   17249   17245   17243   17246   17247
   17245   17243   17246   17248   17245   17243   17246   17249
   17246   17249   17252   17253   17246   17249   17252   17254
   17246   17249   17252   17255   17247   17246   17249   17250
   17247   17246   17249   17251   17247   17246   17249   17252
   17248   17246   17249   17250   17248   17246   17249   17251
   17248   17246   17249   17252   17249   17252   17255   17256
   17249   17252   17255   17257   17249   17252   17255   17258
   17250   17249   17252   17253   17250   17249   17252   17254
   17250   17249   17252   17255   17251   17249   17252   17253
   17251   17249   17252   17254   17251   17249   17252   17255
   17252   17255   17258   17259   17252   17255   17258   17260
   17252   17255   17258   17261   17253   17252   17255   17256
   17253   17252   17255   17257   17253   17252   17255   17258
   17254   17252   17255   17256   17254   17252   17255   17257
   17254   17252   17255   17258   17256   17255   17258   17259
   17256   17255   17258   17260   17256   17255   17258   17261
   17257   17255   17258   17259   17257   17255   17258   17260
   17257   17255   17258   17261   17262   17275   17278   17279
   17262   17275   17278   17280   17262   17275   17278   17285
   17263   17262   17267   17268   17263   17262   17267   17269
   17263   17262   17267   17270   17263   17262   17271   17272
   17263   17262   17271   17273   17263   17262   17271   17274
   17263   17262   17275   17276   17263   17262   17275   17277
   17263   17262   17275   17278   17267   17262   17263   17264
   17267   17262   17263   17265   17267   17262   17263   17266
   17267   17262   17271   17272   17267   17262   17271   17273
   17267   17262   17271   17274   17267   17262   17275   17276
   17267   17262   17275   17277   17267   17262   17275   17278
   17271   17262   17263   17264   17271   17262   17263   17265
   17271   17262   17263   17266   17271   17262   17267   17268
   17271   17262   17267   17269   17271   17262   17267   17270
   17271   17262   17275   17276   17271   17262   17275   17277
   17271   17262   17275   17278   17275   17262   17263   17264
   17275   17262   17263   17265   17275   17262   17263   17266
   17275   17262   17267   17268   17275   17262   17267   17269
   17275   17262   17267   17270   17275   17262   17271   17272
   17275   17262   17271   17273   17275   17262   17271   17274
   17275   17278   17285   17281   17276   17275   17278   17279
   17276   17275   17278   17280   17276   17275   17278   17285
   17277   17275   17278   17279   17277   17275   17278   17280
   17277   17275   17278   17285   17279   17278   17285   17281
   17280   17278   17285   17281   17281   17284   17286   17287
   17281   17284   17286   17288   17281   17284   17286   17289
   17282   17281   17285   17278   17282   17281   17284   17286
   17283   17281   17285   17278   17283   17281   17284   17286
   17284   17281   17285   17278   17284   17286   17289   17290
   17284   17286   17289   17297   17284   17286   17289   17291
   17285   17281   17284   17286   17286   17289   17297   17298
   17286   17289   17297   17299   17286   17289   17297   17300
   17286   17289   17291   17292   17287   17286   17289   17290
   17287   17286   17289   17297   17287   17286   17289   17291
   17288   17286   17289   17290   17288   17286   17289   17297
   17288   17286   17289   17291   17289   17297   17300   17301
   17289   17291   17292   17294   17289   17291   17292   17293
   17290   17289   17297   17298   17290   17289   17297   17299
   17290   17289   17297   17300   17290   17289   17291   17292
   17291   17292   17294   17295   17291   17292   17294   17296
   17291   17292   17294   17306   17291   17289   17297   17298
   17291   17289   17297   17299   17291   17289   17297   17300
   17292   17294   17306   17307   17292   17294   17306   17308
   17292   17294   17306   17309   17293   17292   17294   17295
   17293   17292   17294   17296   17293   17292   17294   17306
   17294   17306   17309   17310   17294   17306   17309   17311
   17294   17306   17309   17312   17295   17294   17306   17307
   17295   17294   17306   17308   17295   17294   17306   17309
   17296   17294   17306   17307   17296   17294   17306   17308
   17296   17294   17306   17309   17297   17289   17291   17292
   17297   17300   17301   17303   17297   17300   17301   17302
   17298   17297   17300   17301   17299   17297   17300   17301
   17300   17301   17303   17304   17300   17301   17303   17305
   17300   17301   17303   17343   17301   17303   17343   17344
   17301   17303   17343   17345   17301   17303   17343   17346
   17302   17301   17303   17304   17302   17301   17303   17305
   17302   17301   17303   17343   17303   17343   17346   17347
   17303   17343   17346   17348   17303   17343   17346   17349
   17304   17303   17343   17344   17304   17303   17343   17345
   17304   17303   17343   17346   17305   17303   17343   17344
   17305   17303   17343   17345   17305   17303   17343   17346
   17306   17309   17312   17313   17306   17309   17312   17314
   17306   17309   17312   17315   17307   17306   17309   17310
   17307   17306   17309   17311   17307   17306   17309   17312
   17308   17306   17309   17310   17308   17306   17309   17311
   17308   17306   17309   17312   17309   17312   17315   17316
   17309   17312   17315   17317   17309   17312   17315   17318
   17310   17309   17312   17313   17310   17309   17312   17314
   17310   17309   17312   17315   17311   17309   17312   17313
   17311   17309   17312   17314   17311   17309   17312   17315
   17312   17315   17318   17319   17312   17315   17318   17320
   17312   17315   17318   17321   17313   17312   17315   17316
   17313   17312   17315   17317   17313   17312   17315   17318
   17314   17312   17315   17316   17314   17312   17315   17317
   17314   17312   17315   17318   17315   17318   17321   17322
   17315   17318   17321   17323   17315   17318   17321   17324
   17316   17315   17318   17319   17316   17315   17318   17320
   17316   17315   17318   17321   17317   17315   17318   17319
   17317   17315   17318   17320   17317   17315   17318   17321
   17318   17321   17324   17325   17318   17321   17324   17326
   17318   17321   17324   17327   17319   17318   17321   17322
   17319   17318   17321   17323   17319   17318   17321   17324
   17320   17318   17321   17322   17320   17318   17321   17323
   17320   17318   17321   17324   17321   17324   17327   17328
   17321   17324   17327   17329   17321   17324   17327   17330
   17322   17321   17324   17325   17322   17321   17324   17326
   17322   17321   17324   17327   17323   17321   17324   17325
   17323   17321   17324   17326   17323   17321   17324   17327
   17324   17327   17330   17331   17324   17327   17330   17332
   17324   17327   17330   17333   17325   17324   17327   17328
   17325   17324   17327   17329   17325   17324   17327   17330
   17326   17324   17327   17328   17326   17324   17327   17329
   17326   17324   17327   17330   17327   17330   17333   17334
   17327   17330   17333   17335   17327   17330   17333   17336
   17328   17327   17330   17331   17328   17327   17330   17332
   17328   17327   17330   17333   17329   17327   17330   17331
   17329   17327   17330   17332   17329   17327   17330   17333
   17330   17333   17336   17337   17330   17333   17336   17338
   17330   17333   17336   17339   17331   17330   17333   17334
   17331   17330   17333   17335   17331   17330   17333   17336
   17332   17330   17333   17334   17332   17330   17333   17335
   17332   17330   17333   17336   17333   17336   17339   17340
   17333   17336   17339   17341   17333   17336   17339   17342
   17334   17333   17336   17337   17334   17333   17336   17338
   17334   17333   17336   17339   17335   17333   17336   17337
   17335   17333   17336   17338   17335   17333   17336   17339
   17337   17336   17339   17340   17337   17336   17339   17341
   17337   17336   17339   17342   17338   17336   17339   17340
   17338   17336   17339   17341   17338   17336   17339   17342
   17343   17346   17349   17350   17343   17346   17349   17351
   17343   17346   17349   17352   17344   17343   17346   17347
   17344   17343   17346   17348   17344   17343   17346   17349
   17345   17343   17346   17347   17345   17343   17346   17348
   17345   17343   17346   17349   17346   17349   17352   17353
   17346   17349   17352   17354   17346   17349   17352   17355
   17347   17346   17349   17350   17347   17346   17349   17351
   17347   17346   17349   17352   17348   17346   17349   17350
   17348   17346   17349   17351   17348   17346   17349   17352
   17349   17352   17355   17356   17349   17352   17355   17357
   17349   17352   17355   17358   17350   17349   17352   17353
   17350   17349   17352   17354   17350   17349   17352   17355
   17351   17349   17352   17353   17351   17349   17352   17354
   17351   17349   17352   17355   17352   17355   17358   17359
   17352   17355   17358   17360   17352   17355   17358   17361
   17353   17352   17355   17356   17353   17352   17355   17357
   17353   17352   17355   17358   17354   17352   17355   17356
   17354   17352   17355   17357   17354   17352   17355   17358
   17355   17358   17361   17362   17355   17358   17361   17363
   17355   17358   17361   17364   17356   17355   17358   17359
   17356   17355   17358   17360   17356   17355   17358   17361
   17357   17355   17358   17359   17357   17355   17358   17360
   17357   17355   17358   17361   17358   17361   17364   17365
   17358   17361   17364   17366   17358   17361   17364   17367
   17359   17358   17361   17362   17359   17358   17361   17363
   17359   17358   17361   17364   17360   17358   17361   17362
   17360   17358   17361   17363   17360   17358   17361   17364
   17361   17364   17367   17368   17361   17364   17367   17369
   17361   17364   17367   17370   17362   17361   17364   17365
   17362   17361   17364   17366   17362   17361   17364   17367
   17363   17361   17364   17365   17363   17361   17364   17366
   17363   17361   17364   17367   17364   17367   17370   17371
   17364   17367   17370   17372   17364   17367   17370   17373
   17365   17364   17367   17368   17365   17364   17367   17369
   17365   17364   17367   17370   17366   17364   17367   17368
   17366   17364   17367   17369   17366   17364   17367   17370
   17367   17370   17373   17374   17367   17370   17373   17375
   17367   17370   17373   17376   17368   17367   17370   17371
   17368   17367   17370   17372   17368   17367   17370   17373
   17369   17367   17370   17371   17369   17367   17370   17372
   17369   17367   17370   17373   17370   17373   17376   17377
   17370   17373   17376   17378   17370   17373   17376   17379
   17371   17370   17373   17374   17371   17370   17373   17375
   17371   17370   17373   17376   17372   17370   17373   17374
   17372   17370   17373   17375   17372   17370   17373   17376
   17374   17373   17376   17377   17374   17373   17376   17378
   17374   17373   17376   17379   17375   17373   17376   17377
   17375   17373   17376   17378   17375   17373   17376   17379
   17380   17393   17396   17397   17380   17393   17396   17398
   17380   17393   17396   17403   17381   17380   17385   17386
   17381   17380   17385   17387   17381   17380   17385   17388
   17381   17380   17389   17390   17381   17380   17389   17391
   17381   17380   17389   17392   17381   17380   17393   17394
   17381   17380   17393   17395   17381   17380   17393   17396
   17385   17380   17381   17382   17385   17380   17381   17383
   17385   17380   17381   17384   17385   17380   17389   17390
   17385   17380   17389   17391   17385   17380   17389   17392
   17385   17380   17393   17394   17385   17380   17393   17395
   17385   17380   17393   17396   17389   17380   17381   17382
   17389   17380   17381   17383   17389   17380   17381   17384
   17389   17380   17385   17386   17389   17380   17385   17387
   17389   17380   17385   17388   17389   17380   17393   17394
   17389   17380   17393   17395   17389   17380   17393   17396
   17393   17380   17381   17382   17393   17380   17381   17383
   17393   17380   17381   17384   17393   17380   17385   17386
   17393   17380   17385   17387   17393   17380   17385   17388
   17393   17380   17389   17390   17393   17380   17389   17391
   17393   17380   17389   17392   17393   17396   17403   17399
   17394   17393   17396   17397   17394   17393   17396   17398
   17394   17393   17396   17403   17395   17393   17396   17397
   17395   17393   17396   17398   17395   17393   17396   17403
   17397   17396   17403   17399   17398   17396   17403   17399
   17399   17402   17404   17405   17399   17402   17404   17406
   17399   17402   17404   17407   17400   17399   17403   17396
   17400   17399   17402   17404   17401   17399   17403   17396
   17401   17399   17402   17404   17402   17399   17403   17396
   17402   17404   17407   17408   17402   17404   17407   17415
   17402   17404   17407   17409   17403   17399   17402   17404
   17404   17407   17415   17416   17404   17407   17415   17417
   17404   17407   17415   17418   17404   17407   17409   17410
   17405   17404   17407   17408   17405   17404   17407   17415
   17405   17404   17407   17409   17406   17404   17407   17408
   17406   17404   17407   17415   17406   17404   17407   17409
   17407   17415   17418   17419   17407   17409   17410   17412
   17407   17409   17410   17411   17408   17407   17415   17416
   17408   17407   17415   17417   17408   17407   17415   17418
   17408   17407   17409   17410   17409   17410   17412   17413
   17409   17410   17412   17414   17409   17410   17412   17424
   17409   17407   17415   17416   17409   17407   17415   17417
   17409   17407   17415   17418   17410   17412   17424   17425
   17410   17412   17424   17426   17410   17412   17424   17427
   17411   17410   17412   17413   17411   17410   17412   17414
   17411   17410   17412   17424   17412   17424   17427   17428
   17412   17424   17427   17429   17412   17424   17427   17430
   17413   17412   17424   17425   17413   17412   17424   17426
   17413   17412   17424   17427   17414   17412   17424   17425
   17414   17412   17424   17426   17414   17412   17424   17427
   17415   17407   17409   17410   17415   17418   17419   17421
   17415   17418   17419   17420   17416   17415   17418   17419
   17417   17415   17418   17419   17418   17419   17421   17422
   17418   17419   17421   17423   17418   17419   17421   17461
   17419   17421   17461   17462   17419   17421   17461   17463
   17419   17421   17461   17464   17420   17419   17421   17422
   17420   17419   17421   17423   17420   17419   17421   17461
   17421   17461   17464   17465   17421   17461   17464   17466
   17421   17461   17464   17467   17422   17421   17461   17462
   17422   17421   17461   17463   17422   17421   17461   17464
   17423   17421   17461   17462   17423   17421   17461   17463
   17423   17421   17461   17464   17424   17427   17430   17431
   17424   17427   17430   17432   17424   17427   17430   17433
   17425   17424   17427   17428   17425   17424   17427   17429
   17425   17424   17427   17430   17426   17424   17427   17428
   17426   17424   17427   17429   17426   17424   17427   17430
   17427   17430   17433   17434   17427   17430   17433   17435
   17427   17430   17433   17436   17428   17427   17430   17431
   17428   17427   17430   17432   17428   17427   17430   17433
   17429   17427   17430   17431   17429   17427   17430   17432
   17429   17427   17430   17433   17430   17433   17436   17437
   17430   17433   17436   17438   17430   17433   17436   17439
   17431   17430   17433   17434   17431   17430   17433   17435
   17431   17430   17433   17436   17432   17430   17433   17434
   17432   17430   17433   17435   17432   17430   17433   17436
   17433   17436   17439   17440   17433   17436   17439   17441
   17433   17436   17439   17442   17434   17433   17436   17437
   17434   17433   17436   17438   17434   17433   17436   17439
   17435   17433   17436   17437   17435   17433   17436   17438
   17435   17433   17436   17439   17436   17439   17442   17443
   17436   17439   17442   17444   17436   17439   17442   17445
   17437   17436   17439   17440   17437   17436   17439   17441
   17437   17436   17439   17442   17438   17436   17439   17440
   17438   17436   17439   17441   17438   17436   17439   17442
   17439   17442   17445   17446   17439   17442   17445   17447
   17439   17442   17445   17448   17440   17439   17442   17443
   17440   17439   17442   17444   17440   17439   17442   17445
   17441   17439   17442   17443   17441   17439   17442   17444
   17441   17439   17442   17445   17442   17445   17448   17449
   17442   17445   17448   17450   17442   17445   17448   17451
   17443   17442   17445   17446   17443   17442   17445   17447
   17443   17442   17445   17448   17444   17442   17445   17446
   17444   17442   17445   17447   17444   17442   17445   17448
   17445   17448   17451   17452   17445   17448   17451   17453
   17445   17448   17451   17454   17446   17445   17448   17449
   17446   17445   17448   17450   17446   17445   17448   17451
   17447   17445   17448   17449   17447   17445   17448   17450
   17447   17445   17448   17451   17448   17451   17454   17455
   17448   17451   17454   17456   17448   17451   17454   17457
   17449   17448   17451   17452   17449   17448   17451   17453
   17449   17448   17451   17454   17450   17448   17451   17452
   17450   17448   17451   17453   17450   17448   17451   17454
   17451   17454   17457   17458   17451   17454   17457   17459
   17451   17454   17457   17460   17452   17451   17454   17455
   17452   17451   17454   17456   17452   17451   17454   17457
   17453   17451   17454   17455   17453   17451   17454   17456
   17453   17451   17454   17457   17455   17454   17457   17458
   17455   17454   17457   17459   17455   17454   17457   17460
   17456   17454   17457   17458   17456   17454   17457   17459
   17456   17454   17457   17460   17461   17464   17467   17468
   17461   17464   17467   17469   17461   17464   17467   17470
   17462   17461   17464   17465   17462   17461   17464   17466
   17462   17461   17464   17467   17463   17461   17464   17465
   17463   17461   17464   17466   17463   17461   17464   17467
   17464   17467   17470   17471   17464   17467   17470   17472
   17464   17467   17470   17473   17465   17464   17467   17468
   17465   17464   17467   17469   17465   17464   17467   17470
   17466   17464   17467   17468   17466   17464   17467   17469
   17466   17464   17467   17470   17467   17470   17473   17474
   17467   17470   17473   17475   17467   17470   17473   17476
   17468   17467   17470   17471   17468   17467   17470   17472
   17468   17467   17470   17473   17469   17467   17470   17471
   17469   17467   17470   17472   17469   17467   17470   17473
   17470   17473   17476   17477   17470   17473   17476   17478
   17470   17473   17476   17479   17471   17470   17473   17474
   17471   17470   17473   17475   17471   17470   17473   17476
   17472   17470   17473   17474   17472   17470   17473   17475
   17472   17470   17473   17476   17473   17476   17479   17480
   17473   17476   17479   17481   17473   17476   17479   17482
   17474   17473   17476   17477   17474   17473   17476   17478
   17474   17473   17476   17479   17475   17473   17476   17477
   17475   17473   17476   17478   17475   17473   17476   17479
   17476   17479   17482   17483   17476   17479   17482   17484
   17476   17479   17482   17485   17477   17476   17479   17480
   17477   17476   17479   17481   17477   17476   17479   17482
   17478   17476   17479   17480   17478   17476   17479   17481
   17478   17476   17479   17482   17479   17482   17485   17486
   17479   17482   17485   17487   17479   17482   17485   17488
   17480   17479   17482   17483   17480   17479   17482   17484
   17480   17479   17482   17485   17481   17479   17482   17483
   17481   17479   17482   17484   17481   17479   17482   17485
   17482   17485   17488   17489   17482   17485   17488   17490
   17482   17485   17488   17491   17483   17482   17485   17486
   17483   17482   17485   17487   17483   17482   17485   17488
   17484   17482   17485   17486   17484   17482   17485   17487
   17484   17482   17485   17488   17485   17488   17491   17492
   17485   17488   17491   17493   17485   17488   17491   17494
   17486   17485   17488   17489   17486   17485   17488   17490
   17486   17485   17488   17491   17487   17485   17488   17489
   17487   17485   17488   17490   17487   17485   17488   17491
   17488   17491   17494   17495   17488   17491   17494   17496
   17488   17491   17494   17497   17489   17488   17491   17492
   17489   17488   17491   17493   17489   17488   17491   17494
   17490   17488   17491   17492   17490   17488   17491   17493
   17490   17488   17491   17494   17492   17491   17494   17495
   17492   17491   17494   17496   17492   17491   17494   17497
   17493   17491   17494   17495   17493   17491   17494   17496
   17493   17491   17494   17497   17498   17511   17514   17515
   17498   17511   17514   17516   17498   17511   17514   17521
   17499   17498   17503   17504   17499   17498   17503   17505
   17499   17498   17503   17506   17499   17498   17507   17508
   17499   17498   17507   17509   17499   17498   17507   17510
   17499   17498   17511   17512   17499   17498   17511   17513
   17499   17498   17511   17514   17503   17498   17499   17500
   17503   17498   17499   17501   17503   17498   17499   17502
   17503   17498   17507   17508   17503   17498   17507   17509
   17503   17498   17507   17510   17503   17498   17511   17512
   17503   17498   17511   17513   17503   17498   17511   17514
   17507   17498   17499   17500   17507   17498   17499   17501
   17507   17498   17499   17502   17507   17498   17503   17504
   17507   17498   17503   17505   17507   17498   17503   17506
   17507   17498   17511   17512   17507   17498   17511   17513
   17507   17498   17511   17514   17511   17498   17499   17500
   17511   17498   17499   17501   17511   17498   17499   17502
   17511   17498   17503   17504   17511   17498   17503   17505
   17511   17498   17503   17506   17511   17498   17507   17508
   17511   17498   17507   17509   17511   17498   17507   17510
   17511   17514   17521   17517   17512   17511   17514   17515
   17512   17511   17514   17516   17512   17511   17514   17521
   17513   17511   17514   17515   17513   17511   17514   17516
   17513   17511   17514   17521   17515   17514   17521   17517
   17516   17514   17521   17517   17517   17520   17522   17523
   17517   17520   17522   17524   17517   17520   17522   17525
   17518   17517   17521   17514   17518   17517   17520   17522
   17519   17517   17521   17514   17519   17517   17520   17522
   17520   17517   17521   17514   17520   17522   17525   17526
   17520   17522   17525   17533   17520   17522   17525   17527
   17521   17517   17520   17522   17522   17525   17533   17534
   17522   17525   17533   17535   17522   17525   17533   17536
   17522   17525   17527   17528   17523   17522   17525   17526
   17523   17522   17525   17533   17523   17522   17525   17527
   17524   17522   17525   17526   17524   17522   17525   17533
   17524   17522   17525   17527   17525   17533   17536   17537
   17525   17527   17528   17530   17525   17527   17528   17529
   17526   17525   17533   17534   17526   17525   17533   17535
   17526   17525   17533   17536   17526   17525   17527   17528
   17527   17528   17530   17531   17527   17528   17530   17532
   17527   17528   17530   17542   17527   17525   17533   17534
   17527   17525   17533   17535   17527   17525   17533   17536
   17528   17530   17542   17543   17528   17530   17542   17544
   17528   17530   17542   17545   17529   17528   17530   17531
   17529   17528   17530   17532   17529   17528   17530   17542
   17530   17542   17545   17546   17530   17542   17545   17547
   17530   17542   17545   17548   17531   17530   17542   17543
   17531   17530   17542   17544   17531   17530   17542   17545
   17532   17530   17542   17543   17532   17530   17542   17544
   17532   17530   17542   17545   17533   17525   17527   17528
   17533   17536   17537   17539   17533   17536   17537   17538
   17534   17533   17536   17537   17535   17533   17536   17537
   17536   17537   17539   17540   17536   17537   17539   17541
   17536   17537   17539   17579   17537   17539   17579   17580
   17537   17539   17579   17581   17537   17539   17579   17582
   17538   17537   17539   17540   17538   17537   17539   17541
   17538   17537   17539   17579   17539   17579   17582   17583
   17539   17579   17582   17584   17539   17579   17582   17585
   17540   17539   17579   17580   17540   17539   17579   17581
   17540   17539   17579   17582   17541   17539   17579   17580
   17541   17539   17579   17581   17541   17539   17579   17582
   17542   17545   17548   17549   17542   17545   17548   17550
   17542   17545   17548   17551   17543   17542   17545   17546
   17543   17542   17545   17547   17543   17542   17545   17548
   17544   17542   17545   17546   17544   17542   17545   17547
   17544   17542   17545   17548   17545   17548   17551   17552
   17545   17548   17551   17553   17545   17548   17551   17554
   17546   17545   17548   17549   17546   17545   17548   17550
   17546   17545   17548   17551   17547   17545   17548   17549
   17547   17545   17548   17550   17547   17545   17548   17551
   17548   17551   17554   17555   17548   17551   17554   17556
   17548   17551   17554   17557   17549   17548   17551   17552
   17549   17548   17551   17553   17549   17548   17551   17554
   17550   17548   17551   17552   17550   17548   17551   17553
   17550   17548   17551   17554   17551   17554   17557   17558
   17551   17554   17557   17559   17551   17554   17557   17560
   17552   17551   17554   17555   17552   17551   17554   17556
   17552   17551   17554   17557   17553   17551   17554   17555
   17553   17551   17554   17556   17553   17551   17554   17557
   17554   17557   17560   17561   17554   17557   17560   17562
   17554   17557   17560   17563   17555   17554   17557   17558
   17555   17554   17557   17559   17555   17554   17557   17560
   17556   17554   17557   17558   17556   17554   17557   17559
   17556   17554   17557   17560   17557   17560   17563   17564
   17557   17560   17563   17565   17557   17560   17563   17566
   17558   17557   17560   17561   17558   17557   17560   17562
   17558   17557   17560   17563   17559   17557   17560   17561
   17559   17557   17560   17562   17559   17557   17560   17563
   17560   17563   17566   17567   17560   17563   17566   17568
   17560   17563   17566   17569   17561   17560   17563   17564
   17561   17560   17563   17565   17561   17560   17563   17566
   17562   17560   17563   17564   17562   17560   17563   17565
   17562   17560   17563   17566   17563   17566   17569   17570
   17563   17566   17569   17571   17563   17566   17569   17572
   17564   17563   17566   17567   17564   17563   17566   17568
   17564   17563   17566   17569   17565   17563   17566   17567
   17565   17563   17566   17568   17565   17563   17566   17569
   17566   17569   17572   17573   17566   17569   17572   17574
   17566   17569   17572   17575   17567   17566   17569   17570
   17567   17566   17569   17571   17567   17566   17569   17572
   17568   17566   17569   17570   17568   17566   17569   17571
   17568   17566   17569   17572   17569   17572   17575   17576
   17569   17572   17575   17577   17569   17572   17575   17578
   17570   17569   17572   17573   17570   17569   17572   17574
   17570   17569   17572   17575   17571   17569   17572   17573
   17571   17569   17572   17574   17571   17569   17572   17575
   17573   17572   17575   17576   17573   17572   17575   17577
   17573   17572   17575   17578   17574   17572   17575   17576
   17574   17572   17575   17577   17574   17572   17575   17578
   17579   17582   17585   17586   17579   17582   17585   17587
   17579   17582   17585   17588   17580   17579   17582   17583
   17580   17579   17582   17584   17580   17579   17582   17585
   17581   17579   17582   17583   17581   17579   17582   17584
   17581   17579   17582   17585   17582   17585   17588   17589
   17582   17585   17588   17590   17582   17585   17588   17591
   17583   17582   17585   17586   17583   17582   17585   17587
   17583   17582   17585   17588   17584   17582   17585   17586
   17584   17582   17585   17587   17584   17582   17585   17588
   17585   17588   17591   17592   17585   17588   17591   17593
   17585   17588   17591   17594   17586   17585   17588   17589
   17586   17585   17588   17590   17586   17585   17588   17591
   17587   17585   17588   17589   17587   17585   17588   17590
   17587   17585   17588   17591   17588   17591   17594   17595
   17588   17591   17594   17596   17588   17591   17594   17597
   17589   17588   17591   17592   17589   17588   17591   17593
   17589   17588   17591   17594   17590   17588   17591   17592
   17590   17588   17591   17593   17590   17588   17591   17594
   17591   17594   17597   17598   17591   17594   17597   17599
   17591   17594   17597   17600   17592   17591   17594   17595
   17592   17591   17594   17596   17592   17591   17594   17597
   17593   17591   17594   17595   17593   17591   17594   17596
   17593   17591   17594   17597   17594   17597   17600   17601
   17594   17597   17600   17602   17594   17597   17600   17603
   17595   17594   17597   17598   17595   17594   17597   17599
   17595   17594   17597   17600   17596   17594   17597   17598
   17596   17594   17597   17599   17596   17594   17597   17600
   17597   17600   17603   17604   17597   17600   17603   17605
   17597   17600   17603   17606   17598   17597   17600   17601
   17598   17597   17600   17602   17598   17597   17600   17603
   17599   17597   17600   17601   17599   17597   17600   17602
   17599   17597   17600   17603   17600   17603   17606   17607
   17600   17603   17606   17608   17600   17603   17606   17609
   17601   17600   17603   17604   17601   17600   17603   17605
   17601   17600   17603   17606   17602   17600   17603   17604
   17602   17600   17603   17605   17602   17600   17603   17606
   17603   17606   17609   17610   17603   17606   17609   17611
   17603   17606   17609   17612   17604   17603   17606   17607
   17604   17603   17606   17608   17604   17603   17606   17609
   17605   17603   17606   17607   17605   17603   17606   17608
   17605   17603   17606   17609   17606   17609   17612   17613
   17606   17609   17612   17614   17606   17609   17612   17615
   17607   17606   17609   17610   17607   17606   17609   17611
   17607   17606   17609   17612   17608   17606   17609   17610
   17608   17606   17609   17611   17608   17606   17609   17612
   17610   17609   17612   17613   17610   17609   17612   17614
   17610   17609   17612   17615   17611   17609   17612   17613
   17611   17609   17612   17614   17611   17609   17612   17615
   17616   17629   17632   17633   17616   17629   17632   17634
   17616   17629   17632   17639   17617   17616   17621   17622
   17617   17616   17621   17623   17617   17616   17621   17624
   17617   17616   17625   17626   17617   17616   17625   17627
   17617   17616   17625   17628   17617   17616   17629   17630
   17617   17616   17629   17631   17617   17616   17629   17632
   17621   17616   17617   17618   17621   17616   17617   17619
   17621   17616   17617   17620   17621   17616   17625   17626
   17621   17616   17625   17627   17621   17616   17625   17628
   17621   17616   17629   17630   17621   17616   17629   17631
   17621   17616   17629   17632   17625   17616   17617   17618
   17625   17616   17617   17619   17625   17616   17617   17620
   17625   17616   17621   17622   17625   17616   17621   17623
   17625   17616   17621   17624   17625   17616   17629   17630
   17625   17616   17629   17631   17625   17616   17629   17632
   17629   17616   17617   17618   17629   17616   17617   17619
   17629   17616   17617   17620   17629   17616   17621   17622
   17629   17616   17621   17623   17629   17616   17621   17624
   17629   17616   17625   17626   17629   17616   17625   17627
   17629   17616   17625   17628   17629   17632   17639   17635
   17630   17629   17632   17633   17630   17629   17632   17634
   17630   17629   17632   17639   17631   17629   17632   17633
   17631   17629   17632   17634   17631   17629   17632   17639
   17633   17632   17639   17635   17634   17632   17639   17635
   17635   17638   17640   17641   17635   17638   17640   17642
   17635   17638   17640   17643   17636   17635   17639   17632
   17636   17635   17638   17640   17637   17635   17639   17632
   17637   17635   17638   17640   17638   17635   17639   17632
   17638   17640   17643   17644   17638   17640   17643   17651
   17638   17640   17643   17645   17639   17635   17638   17640
   17640   17643   17651   17652   17640   17643   17651   17653
   17640   17643   17651   17654   17640   17643   17645   17646
   17641   17640   17643   17644   17641   17640   17643   17651
   17641   17640   17643   17645   17642   17640   17643   17644
   17642   17640   17643   17651   17642   17640   17643   17645
   17643   17651   17654   17655   17643   17645   17646   17648
   17643   17645   17646   17647   17644   17643   17651   17652
   17644   17643   17651   17653   17644   17643   17651   17654
   17644   17643   17645   17646   17645   17646   17648   17649
   17645   17646   17648   17650   17645   17646   17648   17660
   17645   17643   17651   17652   17645   17643   17651   17653
   17645   17643   17651   17654   17646   17648   17660   17661
   17646   17648   17660   17662   17646   17648   17660   17663
   17647   17646   17648   17649   17647   17646   17648   17650
   17647   17646   17648   17660   17648   17660   17663   17664
   17648   17660   17663   17665   17648   17660   17663   17666
   17649   17648   17660   17661   17649   17648   17660   17662
   17649   17648   17660   17663   17650   17648   17660   17661
   17650   17648   17660   17662   17650   17648   17660   17663
   17651   17643   17645   17646   17651   17654   17655   17657
   17651   17654   17655   17656   17652   17651   17654   17655
   17653   17651   17654   17655   17654   17655   17657   17658
   17654   17655   17657   17659   17654   17655   17657   17697
   17655   17657   17697   17698   17655   17657   17697   17699
   17655   17657   17697   17700   17656   17655   17657   17658
   17656   17655   17657   17659   17656   17655   17657   17697
   17657   17697   17700   17701   17657   17697   17700   17702
   17657   17697   17700   17703   17658   17657   17697   17698
   17658   17657   17697   17699   17658   17657   17697   17700
   17659   17657   17697   17698   17659   17657   17697   17699
   17659   17657   17697   17700   17660   17663   17666   17667
   17660   17663   17666   17668   17660   17663   17666   17669
   17661   17660   17663   17664   17661   17660   17663   17665
   17661   17660   17663   17666   17662   17660   17663   17664
   17662   17660   17663   17665   17662   17660   17663   17666
   17663   17666   17669   17670   17663   17666   17669   17671
   17663   17666   17669   17672   17664   17663   17666   17667
   17664   17663   17666   17668   17664   17663   17666   17669
   17665   17663   17666   17667   17665   17663   17666   17668
   17665   17663   17666   17669   17666   17669   17672   17673
   17666   17669   17672   17674   17666   17669   17672   17675
   17667   17666   17669   17670   17667   17666   17669   17671
   17667   17666   17669   17672   17668   17666   17669   17670
   17668   17666   17669   17671   17668   17666   17669   17672
   17669   17672   17675   17676   17669   17672   17675   17677
   17669   17672   17675   17678   17670   17669   17672   17673
   17670   17669   17672   17674   17670   17669   17672   17675
   17671   17669   17672   17673   17671   17669   17672   17674
   17671   17669   17672   17675   17672   17675   17678   17679
   17672   17675   17678   17680   17672   17675   17678   17681
   17673   17672   17675   17676   17673   17672   17675   17677
   17673   17672   17675   17678   17674   17672   17675   17676
   17674   17672   17675   17677   17674   17672   17675   17678
   17675   17678   17681   17682   17675   17678   17681   17683
   17675   17678   17681   17684   17676   17675   17678   17679
   17676   17675   17678   17680   17676   17675   17678   17681
   17677   17675   17678   17679   17677   17675   17678   17680
   17677   17675   17678   17681   17678   17681   17684   17685
   17678   17681   17684   17686   17678   17681   17684   17687
   17679   17678   17681   17682   17679   17678   17681   17683
   17679   17678   17681   17684   17680   17678   17681   17682
   17680   17678   17681   17683   17680   17678   17681   17684
   17681   17684   17687   17688   17681   17684   17687   17689
   17681   17684   17687   17690   17682   17681   17684   17685
   17682   17681   17684   17686   17682   17681   17684   17687
   17683   17681   17684   17685   17683   17681   17684   17686
   17683   17681   17684   17687   17684   17687   17690   17691
   17684   17687   17690   17692   17684   17687   17690   17693
   17685   17684   17687   17688   17685   17684   17687   17689
   17685   17684   17687   17690   17686   17684   17687   17688
   17686   17684   17687   17689   17686   17684   17687   17690
   17687   17690   17693   17694   17687   17690   17693   17695
   17687   17690   17693   17696   17688   17687   17690   17691
   17688   17687   17690   17692   17688   17687   17690   17693
   17689   17687   17690   17691   17689   17687   17690   17692
   17689   17687   17690   17693   17691   17690   17693   17694
   17691   17690   17693   17695   17691   17690   17693   17696
   17692   17690   17693   17694   17692   17690   17693   17695
   17692   17690   17693   17696   17697   17700   17703   17704
   17697   17700   17703   17705   17697   17700   17703   17706
   17698   17697   17700   17701   17698   17697   17700   17702
   17698   17697   17700   17703   17699   17697   17700   17701
   17699   17697   17700   17702   17699   17697   17700   17703
   17700   17703   17706   17707   17700   17703   17706   17708
   17700   17703   17706   17709   17701   17700   17703   17704
   17701   17700   17703   17705   17701   17700   17703   17706
   17702   17700   17703   17704   17702   17700   17703   17705
   17702   17700   17703   17706   17703   17706   17709   17710
   17703   17706   17709   17711   17703   17706   17709   17712
   17704   17703   17706   17707   17704   17703   17706   17708
   17704   17703   17706   17709   17705   17703   17706   17707
   17705   17703   17706   17708   17705   17703   17706   17709
   17706   17709   17712   17713   17706   17709   17712   17714
   17706   17709   17712   17715   17707   17706   17709   17710
   17707   17706   17709   17711   17707   17706   17709   17712
   17708   17706   17709   17710   17708   17706   17709   17711
   17708   17706   17709   17712   17709   17712   17715   17716
   17709   17712   17715   17717   17709   17712   17715   17718
   17710   17709   17712   17713   17710   17709   17712   17714
   17710   17709   17712   17715   17711   17709   17712   17713
   17711   17709   17712   17714   17711   17709   17712   17715
   17712   17715   17718   17719   17712   17715   17718   17720
   17712   17715   17718   17721   17713   17712   17715   17716
   17713   17712   17715   17717   17713   17712   17715   17718
   17714   17712   17715   17716   17714   17712   17715   17717
   17714   17712   17715   17718   17715   17718   17721   17722
   17715   17718   17721   17723   17715   17718   17721   17724
   17716   17715   17718   17719   17716   17715   17718   17720
   17716   17715   17718   17721   17717   17715   17718   17719
   17717   17715   17718   17720   17717   17715   17718   17721
   17718   17721   17724   17725   17718   17721   17724   17726
   17718   17721   17724   17727   17719   17718   17721   17722
   17719   17718   17721   17723   17719   17718   17721   17724
   17720   17718   17721   17722   17720   17718   17721   17723
   17720   17718   17721   17724   17721   17724   17727   17728
   17721   17724   17727   17729   17721   17724   17727   17730
   17722   17721   17724   17725   17722   17721   17724   17726
   17722   17721   17724   17727   17723   17721   17724   17725
   17723   17721   17724   17726   17723   17721   17724   17727
   17724   17727   17730   17731   17724   17727   17730   17732
   17724   17727   17730   17733   17725   17724   17727   17728
   17725   17724   17727   17729   17725   17724   17727   17730
   17726   17724   17727   17728   17726   17724   17727   17729
   17726   17724   17727   17730   17728   17727   17730   17731
   17728   17727   17730   17732   17728   17727   17730   17733
   17729   17727   17730   17731   17729   17727   17730   17732
   17729   17727   17730   17733   17734   17747   17750   17751
   17734   17747   17750   17752   17734   17747   17750   17757
   17735   17734   17739   17740   17735   17734   17739   17741
   17735   17734   17739   17742   17735   17734   17743   17744
   17735   17734   17743   17745   17735   17734   17743   17746
   17735   17734   17747   17748   17735   17734   17747   17749
   17735   17734   17747   17750   17739   17734   17735   17736
   17739   17734   17735   17737   17739   17734   17735   17738
   17739   17734   17743   17744   17739   17734   17743   17745
   17739   17734   17743   17746   17739   17734   17747   17748
   17739   17734   17747   17749   17739   17734   17747   17750
   17743   17734   17735   17736   17743   17734   17735   17737
   17743   17734   17735   17738   17743   17734   17739   17740
   17743   17734   17739   17741   17743   17734   17739   17742
   17743   17734   17747   17748   17743   17734   17747   17749
   17743   17734   17747   17750   17747   17734   17735   17736
   17747   17734   17735   17737   17747   17734   17735   17738
   17747   17734   17739   17740   17747   17734   17739   17741
   17747   17734   17739   17742   17747   17734   17743   17744
   17747   17734   17743   17745   17747   17734   17743   17746
   17747   17750   17757   17753   17748   17747   17750   17751
   17748   17747   17750   17752   17748   17747   17750   17757
   17749   17747   17750   17751   17749   17747   17750   17752
   17749   17747   17750   17757   17751   17750   17757   17753
   17752   17750   17757   17753   17753   17756   17758   17759
   17753   17756   17758   17760   17753   17756   17758   17761
   17754   17753   17757   17750   17754   17753   17756   17758
   17755   17753   17757   17750   17755   17753   17756   17758
   17756   17753   17757   17750   17756   17758   17761   17762
   17756   17758   17761   17769   17756   17758   17761   17763
   17757   17753   17756   17758   17758   17761   17769   17770
   17758   17761   17769   17771   17758   17761   17769   17772
   17758   17761   17763   17764   17759   17758   17761   17762
   17759   17758   17761   17769   17759   17758   17761   17763
   17760   17758   17761   17762   17760   17758   17761   17769
   17760   17758   17761   17763   17761   17769   17772   17773
   17761   17763   17764   17766   17761   17763   17764   17765
   17762   17761   17769   17770   17762   17761   17769   17771
   17762   17761   17769   17772   17762   17761   17763   17764
   17763   17764   17766   17767   17763   17764   17766   17768
   17763   17764   17766   17778   17763   17761   17769   17770
   17763   17761   17769   17771   17763   17761   17769   17772
   17764   17766   17778   17779   17764   17766   17778   17780
   17764   17766   17778   17781   17765   17764   17766   17767
   17765   17764   17766   17768   17765   17764   17766   17778
   17766   17778   17781   17782   17766   17778   17781   17783
   17766   17778   17781   17784   17767   17766   17778   17779
   17767   17766   17778   17780   17767   17766   17778   17781
   17768   17766   17778   17779   17768   17766   17778   17780
   17768   17766   17778   17781   17769   17761   17763   17764
   17769   17772   17773   17775   17769   17772   17773   17774
   17770   17769   17772   17773   17771   17769   17772   17773
   17772   17773   17775   17776   17772   17773   17775   17777
   17772   17773   17775   17815   17773   17775   17815   17816
   17773   17775   17815   17817   17773   17775   17815   17818
   17774   17773   17775   17776   17774   17773   17775   17777
   17774   17773   17775   17815   17775   17815   17818   17819
   17775   17815   17818   17820   17775   17815   17818   17821
   17776   17775   17815   17816   17776   17775   17815   17817
   17776   17775   17815   17818   17777   17775   17815   17816
   17777   17775   17815   17817   17777   17775   17815   17818
   17778   17781   17784   17785   17778   17781   17784   17786
   17778   17781   17784   17787   17779   17778   17781   17782
   17779   17778   17781   17783   17779   17778   17781   17784
   17780   17778   17781   17782   17780   17778   17781   17783
   17780   17778   17781   17784   17781   17784   17787   17788
   17781   17784   17787   17789   17781   17784   17787   17790
   17782   17781   17784   17785   17782   17781   17784   17786
   17782   17781   17784   17787   17783   17781   17784   17785
   17783   17781   17784   17786   17783   17781   17784   17787
   17784   17787   17790   17791   17784   17787   17790   17792
   17784   17787   17790   17793   17785   17784   17787   17788
   17785   17784   17787   17789   17785   17784   17787   17790
   17786   17784   17787   17788   17786   17784   17787   17789
   17786   17784   17787   17790   17787   17790   17793   17794
   17787   17790   17793   17795   17787   17790   17793   17796
   17788   17787   17790   17791   17788   17787   17790   17792
   17788   17787   17790   17793   17789   17787   17790   17791
   17789   17787   17790   17792   17789   17787   17790   17793
   17790   17793   17796   17797   17790   17793   17796   17798
   17790   17793   17796   17799   17791   17790   17793   17794
   17791   17790   17793   17795   17791   17790   17793   17796
   17792   17790   17793   17794   17792   17790   17793   17795
   17792   17790   17793   17796   17793   17796   17799   17800
   17793   17796   17799   17801   17793   17796   17799   17802
   17794   17793   17796   17797   17794   17793   17796   17798
   17794   17793   17796   17799   17795   17793   17796   17797
   17795   17793   17796   17798   17795   17793   17796   17799
   17796   17799   17802   17803   17796   17799   17802   17804
   17796   17799   17802   17805   17797   17796   17799   17800
   17797   17796   17799   17801   17797   17796   17799   17802
   17798   17796   17799   17800   17798   17796   17799   17801
   17798   17796   17799   17802   17799   17802   17805   17806
   17799   17802   17805   17807   17799   17802   17805   17808
   17800   17799   17802   17803   17800   17799   17802   17804
   17800   17799   17802   17805   17801   17799   17802   17803
   17801   17799   17802   17804   17801   17799   17802   17805
   17802   17805   17808   17809   17802   17805   17808   17810
   17802   17805   17808   17811   17803   17802   17805   17806
   17803   17802   17805   17807   17803   17802   17805   17808
   17804   17802   17805   17806   17804   17802   17805   17807
   17804   17802   17805   17808   17805   17808   17811   17812
   17805   17808   17811   17813   17805   17808   17811   17814
   17806   17805   17808   17809   17806   17805   17808   17810
   17806   17805   17808   17811   17807   17805   17808   17809
   17807   17805   17808   17810   17807   17805   17808   17811
   17809   17808   17811   17812   17809   17808   17811   17813
   17809   17808   17811   17814   17810   17808   17811   17812
   17810   17808   17811   17813   17810   17808   17811   17814
   17815   17818   17821   17822   17815   17818   17821   17823
   17815   17818   17821   17824   17816   17815   17818   17819
   17816   17815   17818   17820   17816   17815   17818   17821
   17817   17815   17818   17819   17817   17815   17818   17820
   17817   17815   17818   17821   17818   17821   17824   17825
   17818   17821   17824   17826   17818   17821   17824   17827
   17819   17818   17821   17822   17819   17818   17821   17823
   17819   17818   17821   17824   17820   17818   17821   17822
   17820   17818   17821   17823   17820   17818   17821   17824
   17821   17824   17827   17828   17821   17824   17827   17829
   17821   17824   17827   17830   17822   17821   17824   17825
   17822   17821   17824   17826   17822   17821   17824   17827
   17823   17821   17824   17825   17823   17821   17824   17826
   17823   17821   17824   17827   17824   17827   17830   17831
   17824   17827   17830   17832   17824   17827   17830   17833
   17825   17824   17827   17828   17825   17824   17827   17829
   17825   17824   17827   17830   17826   17824   17827   17828
   17826   17824   17827   17829   17826   17824   17827   17830
   17827   17830   17833   17834   17827   17830   17833   17835
   17827   17830   17833   17836   17828   17827   17830   17831
   17828   17827   17830   17832   17828   17827   17830   17833
   17829   17827   17830   17831   17829   17827   17830   17832
   17829   17827   17830   17833   17830   17833   17836   17837
   17830   17833   17836   17838   17830   17833   17836   17839
   17831   17830   17833   17834   17831   17830   17833   17835
   17831   17830   17833   17836   17832   17830   17833   17834
   17832   17830   17833   17835   17832   17830   17833   17836
   17833   17836   17839   17840   17833   17836   17839   17841
   17833   17836   17839   17842   17834   17833   17836   17837
   17834   17833   17836   17838   17834   17833   17836   17839
   17835   17833   17836   17837   17835   17833   17836   17838
   17835   17833   17836   17839   17836   17839   17842   17843
   17836   17839   17842   17844   17836   17839   17842   17845
   17837   17836   17839   17840   17837   17836   17839   17841
   17837   17836   17839   17842   17838   17836   17839   17840
   17838   17836   17839   17841   17838   17836   17839   17842
   17839   17842   17845   17846   17839   17842   17845   17847
   17839   17842   17845   17848   17840   17839   17842   17843
   17840   17839   17842   17844   17840   17839   17842   17845
   17841   17839   17842   17843   17841   17839   17842   17844
   17841   17839   17842   17845   17842   17845   17848   17849
   17842   17845   17848   17850   17842   17845   17848   17851
   17843   17842   17845   17846   17843   17842   17845   17847
   17843   17842   17845   17848   17844   17842   17845   17846
   17844   17842   17845   17847   17844   17842   17845   17848
   17846   17845   17848   17849   17846   17845   17848   17850
   17846   17845   17848   17851   17847   17845   17848   17849
   17847   17845   17848   17850   17847   17845   17848   17851
   17852   17865   17868   17869   17852   17865   17868   17870
   17852   17865   17868   17875   17853   17852   17857   17858
   17853   17852   17857   17859   17853   17852   17857   17860
   17853   17852   17861   17862   17853   17852   17861   17863
   17853   17852   17861   17864   17853   17852   17865   17866
   17853   17852   17865   17867   17853   17852   17865   17868
   17857   17852   17853   17854   17857   17852   17853   17855
   17857   17852   17853   17856   17857   17852   17861   17862
   17857   17852   17861   17863   17857   17852   17861   17864
   17857   17852   17865   17866   17857   17852   17865   17867
   17857   17852   17865   17868   17861   17852   17853   17854
   17861   17852   17853   17855   17861   17852   17853   17856
   17861   17852   17857   17858   17861   17852   17857   17859
   17861   17852   17857   17860   17861   17852   17865   17866
   17861   17852   17865   17867   17861   17852   17865   17868
   17865   17852   17853   17854   17865   17852   17853   17855
   17865   17852   17853   17856   17865   17852   17857   17858
   17865   17852   17857   17859   17865   17852   17857   17860
   17865   17852   17861   17862   17865   17852   17861   17863
   17865   17852   17861   17864   17865   17868   17875   17871
   17866   17865   17868   17869   17866   17865   17868   17870
   17866   17865   17868   17875   17867   17865   17868   17869
   17867   17865   17868   17870   17867   17865   17868   17875
   17869   17868   17875   17871   17870   17868   17875   17871
   17871   17874   17876   17877   17871   17874   17876   17878
   17871   17874   17876   17879   17872   17871   17875   17868
   17872   17871   17874   17876   17873   17871   17875   17868
   17873   17871   17874   17876   17874   17871   17875   17868
   17874   17876   17879   17880   17874   17876   17879   17887
   17874   17876   17879   17881   17875   17871   17874   17876
   17876   17879   17887   17888   17876   17879   17887   17889
   17876   17879   17887   17890   17876   17879   17881   17882
   17877   17876   17879   17880   17877   17876   17879   17887
   17877   17876   17879   17881   17878   17876   17879   17880
   17878   17876   17879   17887   17878   17876   17879   17881
   17879   17887   17890   17891   17879   17881   17882   17884
   17879   17881   17882   17883   17880   17879   17887   17888
   17880   17879   17887   17889   17880   17879   17887   17890
   17880   17879   17881   17882   17881   17882   17884   17885
   17881   17882   17884   17886   17881   17882   17884   17896
   17881   17879   17887   17888   17881   17879   17887   17889
   17881   17879   17887   17890   17882   17884   17896   17897
   17882   17884   17896   17898   17882   17884   17896   17899
   17883   17882   17884   17885   17883   17882   17884   17886
   17883   17882   17884   17896   17884   17896   17899   17900
   17884   17896   17899   17901   17884   17896   17899   17902
   17885   17884   17896   17897   17885   17884   17896   17898
   17885   17884   17896   17899   17886   17884   17896   17897
   17886   17884   17896   17898   17886   17884   17896   17899
   17887   17879   17881   17882   17887   17890   17891   17893
   17887   17890   17891   17892   17888   17887   17890   17891
   17889   17887   17890   17891   17890   17891   17893   17894
   17890   17891   17893   17895   17890   17891   17893   17933
   17891   17893   17933   17934   17891   17893   17933   17935
   17891   17893   17933   17936   17892   17891   17893   17894
   17892   17891   17893   17895   17892   17891   17893   17933
   17893   17933   17936   17937   17893   17933   17936   17938
   17893   17933   17936   17939   17894   17893   17933   17934
   17894   17893   17933   17935   17894   17893   17933   17936
   17895   17893   17933   17934   17895   17893   17933   17935
   17895   17893   17933   17936   17896   17899   17902   17903
   17896   17899   17902   17904   17896   17899   17902   17905
   17897   17896   17899   17900   17897   17896   17899   17901
   17897   17896   17899   17902   17898   17896   17899   17900
   17898   17896   17899   17901   17898   17896   17899   17902
   17899   17902   17905   17906   17899   17902   17905   17907
   17899   17902   17905   17908   17900   17899   17902   17903
   17900   17899   17902   17904   17900   17899   17902   17905
   17901   17899   17902   17903   17901   17899   17902   17904
   17901   17899   17902   17905   17902   17905   17908   17909
   17902   17905   17908   17910   17902   17905   17908   17911
   17903   17902   17905   17906   17903   17902   17905   17907
   17903   17902   17905   17908   17904   17902   17905   17906
   17904   17902   17905   17907   17904   17902   17905   17908
   17905   17908   17911   17912   17905   17908   17911   17913
   17905   17908   17911   17914   17906   17905   17908   17909
   17906   17905   17908   17910   17906   17905   17908   17911
   17907   17905   17908   17909   17907   17905   17908   17910
   17907   17905   17908   17911   17908   17911   17914   17915
   17908   17911   17914   17916   17908   17911   17914   17917
   17909   17908   17911   17912   17909   17908   17911   17913
   17909   17908   17911   17914   17910   17908   17911   17912
   17910   17908   17911   17913   17910   17908   17911   17914
   17911   17914   17917   17918   17911   17914   17917   17919
   17911   17914   17917   17920   17912   17911   17914   17915
   17912   17911   17914   17916   17912   17911   17914   17917
   17913   17911   17914   17915   17913   17911   17914   17916
   17913   17911   17914   17917   17914   17917   17920   17921
   17914   17917   17920   17922   17914   17917   17920   17923
   17915   17914   17917   17918   17915   17914   17917   17919
   17915   17914   17917   17920   17916   17914   17917   17918
   17916   17914   17917   17919   17916   17914   17917   17920
   17917   17920   17923   17924   17917   17920   17923   17925
   17917   17920   17923   17926   17918   17917   17920   17921
   17918   17917   17920   17922   17918   17917   17920   17923
   17919   17917   17920   17921   17919   17917   17920   17922
   17919   17917   17920   17923   17920   17923   17926   17927
   17920   17923   17926   17928   17920   17923   17926   17929
   17921   17920   17923   17924   17921   17920   17923   17925
   17921   17920   17923   17926   17922   17920   17923   17924
   17922   17920   17923   17925   17922   17920   17923   17926
   17923   17926   17929   17930   17923   17926   17929   17931
   17923   17926   17929   17932   17924   17923   17926   17927
   17924   17923   17926   17928   17924   17923   17926   17929
   17925   17923   17926   17927   17925   17923   17926   17928
   17925   17923   17926   17929   17927   17926   17929   17930
   17927   17926   17929   17931   17927   17926   17929   17932
   17928   17926   17929   17930   17928   17926   17929   17931
   17928   17926   17929   17932   17933   17936   17939   17940
   17933   17936   17939   17941   17933   17936   17939   17942
   17934   17933   17936   17937   17934   17933   17936   17938
   17934   17933   17936   17939   17935   17933   17936   17937
   17935   17933   17936   17938   17935   17933   17936   17939
   17936   17939   17942   17943   17936   17939   17942   17944
   17936   17939   17942   17945   17937   17936   17939   17940
   17937   17936   17939   17941   17937   17936   17939   17942
   17938   17936   17939   17940   17938   17936   17939   17941
   17938   17936   17939   17942   17939   17942   17945   17946
   17939   17942   17945   17947   17939   17942   17945   17948
   17940   17939   17942   17943   17940   17939   17942   17944
   17940   17939   17942   17945   17941   17939   17942   17943
   17941   17939   17942   17944   17941   17939   17942   17945
   17942   17945   17948   17949   17942   17945   17948   17950
   17942   17945   17948   17951   17943   17942   17945   17946
   17943   17942   17945   17947   17943   17942   17945   17948
   17944   17942   17945   17946   17944   17942   17945   17947
   17944   17942   17945   17948   17945   17948   17951   17952
   17945   17948   17951   17953   17945   17948   17951   17954
   17946   17945   17948   17949   17946   17945   17948   17950
   17946   17945   17948   17951   17947   17945   17948   17949
   17947   17945   17948   17950   17947   17945   17948   17951
   17948   17951   17954   17955   17948   17951   17954   17956
   17948   17951   17954   17957   17949   17948   17951   17952
   17949   17948   17951   17953   17949   17948   17951   17954
   17950   17948   17951   17952   17950   17948   17951   17953
   17950   17948   17951   17954   17951   17954   17957   17958
   17951   17954   17957   17959   17951   17954   17957   17960
   17952   17951   17954   17955   17952   17951   17954   17956
   17952   17951   17954   17957   17953   17951   17954   17955
   17953   17951   17954   17956   17953   17951   17954   17957
   17954   17957   17960   17961   17954   17957   17960   17962
   17954   17957   17960   17963   17955   17954   17957   17958
   17955   17954   17957   17959   17955   17954   17957   17960
   17956   17954   17957   17958   17956   17954   17957   17959
   17956   17954   17957   17960   17957   17960   17963   17964
   17957   17960   17963   17965   17957   17960   17963   17966
   17958   17957   17960   17961   17958   17957   17960   17962
   17958   17957   17960   17963   17959   17957   17960   17961
   17959   17957   17960   17962   17959   17957   17960   17963
   17960   17963   17966   17967   17960   17963   17966   17968
   17960   17963   17966   17969   17961   17960   17963   17964
   17961   17960   17963   17965   17961   17960   17963   17966
   17962   17960   17963   17964   17962   17960   17963   17965
   17962   17960   17963   17966   17964   17963   17966   17967
   17964   17963   17966   17968   17964   17963   17966   17969
   17965   17963   17966   17967   17965   17963   17966   17968
   17965   17963   17966   17969   17970   17983   17986   17987
   17970   17983   17986   17988   17970   17983   17986   17993
   17971   17970   17975   17976   17971   17970   17975   17977
   17971   17970   17975   17978   17971   17970   17979   17980
   17971   17970   17979   17981   17971   17970   17979   17982
   17971   17970   17983   17984   17971   17970   17983   17985
   17971   17970   17983   17986   17975   17970   17971   17972
   17975   17970   17971   17973   17975   17970   17971   17974
   17975   17970   17979   17980   17975   17970   17979   17981
   17975   17970   17979   17982   17975   17970   17983   17984
   17975   17970   17983   17985   17975   17970   17983   17986
   17979   17970   17971   17972   17979   17970   17971   17973
   17979   17970   17971   17974   17979   17970   17975   17976
   17979   17970   17975   17977   17979   17970   17975   17978
   17979   17970   17983   17984   17979   17970   17983   17985
   17979   17970   17983   17986   17983   17970   17971   17972
   17983   17970   17971   17973   17983   17970   17971   17974
   17983   17970   17975   17976   17983   17970   17975   17977
   17983   17970   17975   17978   17983   17970   17979   17980
   17983   17970   17979   17981   17983   17970   17979   17982
   17983   17986   17993   17989   17984   17983   17986   17987
   17984   17983   17986   17988   17984   17983   17986   17993
   17985   17983   17986   17987   17985   17983   17986   17988
   17985   17983   17986   17993   17987   17986   17993   17989
   17988   17986   17993   17989   17989   17992   17994   17995
   17989   17992   17994   17996   17989   17992   17994   17997
   17990   17989   17993   17986   17990   17989   17992   17994
   17991   17989   17993   17986   17991   17989   17992   17994
   17992   17989   17993   17986   17992   17994   17997   17998
   17992   17994   17997   18005   17992   17994   17997   17999
   17993   17989   17992   17994   17994   17997   18005   18006
   17994   17997   18005   18007   17994   17997   18005   18008
   17994   17997   17999   18000   17995   17994   17997   17998
   17995   17994   17997   18005   17995   17994   17997   17999
   17996   17994   17997   17998   17996   17994   17997   18005
   17996   17994   17997   17999   17997   18005   18008   18009
   17997   17999   18000   18002   17997   17999   18000   18001
   17998   17997   18005   18006   17998   17997   18005   18007
   17998   17997   18005   18008   17998   17997   17999   18000
   17999   18000   18002   18003   17999   18000   18002   18004
   17999   18000   18002   18014   17999   17997   18005   18006
   17999   17997   18005   18007   17999   17997   18005   18008
   18000   18002   18014   18015   18000   18002   18014   18016
   18000   18002   18014   18017   18001   18000   18002   18003
   18001   18000   18002   18004   18001   18000   18002   18014
   18002   18014   18017   18018   18002   18014   18017   18019
   18002   18014   18017   18020   18003   18002   18014   18015
   18003   18002   18014   18016   18003   18002   18014   18017
   18004   18002   18014   18015   18004   18002   18014   18016
   18004   18002   18014   18017   18005   17997   17999   18000
   18005   18008   18009   18011   18005   18008   18009   18010
   18006   18005   18008   18009   18007   18005   18008   18009
   18008   18009   18011   18012   18008   18009   18011   18013
   18008   18009   18011   18051   18009   18011   18051   18052
   18009   18011   18051   18053   18009   18011   18051   18054
   18010   18009   18011   18012   18010   18009   18011   18013
   18010   18009   18011   18051   18011   18051   18054   18055
   18011   18051   18054   18056   18011   18051   18054   18057
   18012   18011   18051   18052   18012   18011   18051   18053
   18012   18011   18051   18054   18013   18011   18051   18052
   18013   18011   18051   18053   18013   18011   18051   18054
   18014   18017   18020   18021   18014   18017   18020   18022
   18014   18017   18020   18023   18015   18014   18017   18018
   18015   18014   18017   18019   18015   18014   18017   18020
   18016   18014   18017   18018   18016   18014   18017   18019
   18016   18014   18017   18020   18017   18020   18023   18024
   18017   18020   18023   18025   18017   18020   18023   18026
   18018   18017   18020   18021   18018   18017   18020   18022
   18018   18017   18020   18023   18019   18017   18020   18021
   18019   18017   18020   18022   18019   18017   18020   18023
   18020   18023   18026   18027   18020   18023   18026   18028
   18020   18023   18026   18029   18021   18020   18023   18024
   18021   18020   18023   18025   18021   18020   18023   18026
   18022   18020   18023   18024   18022   18020   18023   18025
   18022   18020   18023   18026   18023   18026   18029   18030
   18023   18026   18029   18031   18023   18026   18029   18032
   18024   18023   18026   18027   18024   18023   18026   18028
   18024   18023   18026   18029   18025   18023   18026   18027
   18025   18023   18026   18028   18025   18023   18026   18029
   18026   18029   18032   18033   18026   18029   18032   18034
   18026   18029   18032   18035   18027   18026   18029   18030
   18027   18026   18029   18031   18027   18026   18029   18032
   18028   18026   18029   18030   18028   18026   18029   18031
   18028   18026   18029   18032   18029   18032   18035   18036
   18029   18032   18035   18037   18029   18032   18035   18038
   18030   18029   18032   18033   18030   18029   18032   18034
   18030   18029   18032   18035   18031   18029   18032   18033
   18031   18029   18032   18034   18031   18029   18032   18035
   18032   18035   18038   18039   18032   18035   18038   18040
   18032   18035   18038   18041   18033   18032   18035   18036
   18033   18032   18035   18037   18033   18032   18035   18038
   18034   18032   18035   18036   18034   18032   18035   18037
   18034   18032   18035   18038   18035   18038   18041   18042
   18035   18038   18041   18043   18035   18038   18041   18044
   18036   18035   18038   18039   18036   18035   18038   18040
   18036   18035   18038   18041   18037   18035   18038   18039
   18037   18035   18038   18040   18037   18035   18038   18041
   18038   18041   18044   18045   18038   18041   18044   18046
   18038   18041   18044   18047   18039   18038   18041   18042
   18039   18038   18041   18043   18039   18038   18041   18044
   18040   18038   18041   18042   18040   18038   18041   18043
   18040   18038   18041   18044   18041   18044   18047   18048
   18041   18044   18047   18049   18041   18044   18047   18050
   18042   18041   18044   18045   18042   18041   18044   18046
   18042   18041   18044   18047   18043   18041   18044   18045
   18043   18041   18044   18046   18043   18041   18044   18047
   18045   18044   18047   18048   18045   18044   18047   18049
   18045   18044   18047   18050   18046   18044   18047   18048
   18046   18044   18047   18049   18046   18044   18047   18050
   18051   18054   18057   18058   18051   18054   18057   18059
   18051   18054   18057   18060   18052   18051   18054   18055
   18052   18051   18054   18056   18052   18051   18054   18057
   18053   18051   18054   18055   18053   18051   18054   18056
   18053   18051   18054   18057   18054   18057   18060   18061
   18054   18057   18060   18062   18054   18057   18060   18063
   18055   18054   18057   18058   18055   18054   18057   18059
   18055   18054   18057   18060   18056   18054   18057   18058
   18056   18054   18057   18059   18056   18054   18057   18060
   18057   18060   18063   18064   18057   18060   18063   18065
   18057   18060   18063   18066   18058   18057   18060   18061
   18058   18057   18060   18062   18058   18057   18060   18063
   18059   18057   18060   18061   18059   18057   18060   18062
   18059   18057   18060   18063   18060   18063   18066   18067
   18060   18063   18066   18068   18060   18063   18066   18069
   18061   18060   18063   18064   18061   18060   18063   18065
   18061   18060   18063   18066   18062   18060   18063   18064
   18062   18060   18063   18065   18062   18060   18063   18066
   18063   18066   18069   18070   18063   18066   18069   18071
   18063   18066   18069   18072   18064   18063   18066   18067
   18064   18063   18066   18068   18064   18063   18066   18069
   18065   18063   18066   18067   18065   18063   18066   18068
   18065   18063   18066   18069   18066   18069   18072   18073
   18066   18069   18072   18074   18066   18069   18072   18075
   18067   18066   18069   18070   18067   18066   18069   18071
   18067   18066   18069   18072   18068   18066   18069   18070
   18068   18066   18069   18071   18068   18066   18069   18072
   18069   18072   18075   18076   18069   18072   18075   18077
   18069   18072   18075   18078   18070   18069   18072   18073
   18070   18069   18072   18074   18070   18069   18072   18075
   18071   18069   18072   18073   18071   18069   18072   18074
   18071   18069   18072   18075   18072   18075   18078   18079
   18072   18075   18078   18080   18072   18075   18078   18081
   18073   18072   18075   18076   18073   18072   18075   18077
   18073   18072   18075   18078   18074   18072   18075   18076
   18074   18072   18075   18077   18074   18072   18075   18078
   18075   18078   18081   18082   18075   18078   18081   18083
   18075   18078   18081   18084   18076   18075   18078   18079
   18076   18075   18078   18080   18076   18075   18078   18081
   18077   18075   18078   18079   18077   18075   18078   18080
   18077   18075   18078   18081   18078   18081   18084   18085
   18078   18081   18084   18086   18078   18081   18084   18087
   18079   18078   18081   18082   18079   18078   18081   18083
   18079   18078   18081   18084   18080   18078   18081   18082
   18080   18078   18081   18083   18080   18078   18081   18084
   18082   18081   18084   18085   18082   18081   18084   18086
   18082   18081   18084   18087   18083   18081   18084   18085
   18083   18081   18084   18086   18083   18081   18084   18087
   18088   18101   18104   18105   18088   18101   18104   18106
   18088   18101   18104   18111   18089   18088   18093   18094
   18089   18088   18093   18095   18089   18088   18093   18096
   18089   18088   18097   18098   18089   18088   18097   18099
   18089   18088   18097   18100   18089   18088   18101   18102
   18089   18088   18101   18103   18089   18088   18101   18104
   18093   18088   18089   18090   18093   18088   18089   18091
   18093   18088   18089   18092   18093   18088   18097   18098
   18093   18088   18097   18099   18093   18088   18097   18100
   18093   18088   18101   18102   18093   18088   18101   18103
   18093   18088   18101   18104   18097   18088   18089   18090
   18097   18088   18089   18091   18097   18088   18089   18092
   18097   18088   18093   18094   18097   18088   18093   18095
   18097   18088   18093   18096   18097   18088   18101   18102
   18097   18088   18101   18103   18097   18088   18101   18104
   18101   18088   18089   18090   18101   18088   18089   18091
   18101   18088   18089   18092   18101   18088   18093   18094
   18101   18088   18093   18095   18101   18088   18093   18096
   18101   18088   18097   18098   18101   18088   18097   18099
   18101   18088   18097   18100   18101   18104   18111   18107
   18102   18101   18104   18105   18102   18101   18104   18106
   18102   18101   18104   18111   18103   18101   18104   18105
   18103   18101   18104   18106   18103   18101   18104   18111
   18105   18104   18111   18107   18106   18104   18111   18107
   18107   18110   18112   18113   18107   18110   18112   18114
   18107   18110   18112   18115   18108   18107   18111   18104
   18108   18107   18110   18112   18109   18107   18111   18104
   18109   18107   18110   18112   18110   18107   18111   18104
   18110   18112   18115   18116   18110   18112   18115   18123
   18110   18112   18115   18117   18111   18107   18110   18112
   18112   18115   18123   18124   18112   18115   18123   18125
   18112   18115   18123   18126   18112   18115   18117   18118
   18113   18112   18115   18116   18113   18112   18115   18123
   18113   18112   18115   18117   18114   18112   18115   18116
   18114   18112   18115   18123   18114   18112   18115   18117
   18115   18123   18126   18127   18115   18117   18118   18120
   18115   18117   18118   18119   18116   18115   18123   18124
   18116   18115   18123   18125   18116   18115   18123   18126
   18116   18115   18117   18118   18117   18118   18120   18121
   18117   18118   18120   18122   18117   18118   18120   18132
   18117   18115   18123   18124   18117   18115   18123   18125
   18117   18115   18123   18126   18118   18120   18132   18133
   18118   18120   18132   18134   18118   18120   18132   18135
   18119   18118   18120   18121   18119   18118   18120   18122
   18119   18118   18120   18132   18120   18132   18135   18136
   18120   18132   18135   18137   18120   18132   18135   18138
   18121   18120   18132   18133   18121   18120   18132   18134
   18121   18120   18132   18135   18122   18120   18132   18133
   18122   18120   18132   18134   18122   18120   18132   18135
   18123   18115   18117   18118   18123   18126   18127   18129
   18123   18126   18127   18128   18124   18123   18126   18127
   18125   18123   18126   18127   18126   18127   18129   18130
   18126   18127   18129   18131   18126   18127   18129   18169
   18127   18129   18169   18170   18127   18129   18169   18171
   18127   18129   18169   18172   18128   18127   18129   18130
   18128   18127   18129   18131   18128   18127   18129   18169
   18129   18169   18172   18173   18129   18169   18172   18174
   18129   18169   18172   18175   18130   18129   18169   18170
   18130   18129   18169   18171   18130   18129   18169   18172
   18131   18129   18169   18170   18131   18129   18169   18171
   18131   18129   18169   18172   18132   18135   18138   18139
   18132   18135   18138   18140   18132   18135   18138   18141
   18133   18132   18135   18136   18133   18132   18135   18137
   18133   18132   18135   18138   18134   18132   18135   18136
   18134   18132   18135   18137   18134   18132   18135   18138
   18135   18138   18141   18142   18135   18138   18141   18143
   18135   18138   18141   18144   18136   18135   18138   18139
   18136   18135   18138   18140   18136   18135   18138   18141
   18137   18135   18138   18139   18137   18135   18138   18140
   18137   18135   18138   18141   18138   18141   18144   18145
   18138   18141   18144   18146   18138   18141   18144   18147
   18139   18138   18141   18142   18139   18138   18141   18143
   18139   18138   18141   18144   18140   18138   18141   18142
   18140   18138   18141   18143   18140   18138   18141   18144
   18141   18144   18147   18148   18141   18144   18147   18149
   18141   18144   18147   18150   18142   18141   18144   18145
   18142   18141   18144   18146   18142   18141   18144   18147
   18143   18141   18144   18145   18143   18141   18144   18146
   18143   18141   18144   18147   18144   18147   18150   18151
   18144   18147   18150   18152   18144   18147   18150   18153
   18145   18144   18147   18148   18145   18144   18147   18149
   18145   18144   18147   18150   18146   18144   18147   18148
   18146   18144   18147   18149   18146   18144   18147   18150
   18147   18150   18153   18154   18147   18150   18153   18155
   18147   18150   18153   18156   18148   18147   18150   18151
   18148   18147   18150   18152   18148   18147   18150   18153
   18149   18147   18150   18151   18149   18147   18150   18152
   18149   18147   18150   18153   18150   18153   18156   18157
   18150   18153   18156   18158   18150   18153   18156   18159
   18151   18150   18153   18154   18151   18150   18153   18155
   18151   18150   18153   18156   18152   18150   18153   18154
   18152   18150   18153   18155   18152   18150   18153   18156
   18153   18156   18159   18160   18153   18156   18159   18161
   18153   18156   18159   18162   18154   18153   18156   18157
   18154   18153   18156   18158   18154   18153   18156   18159
   18155   18153   18156   18157   18155   18153   18156   18158
   18155   18153   18156   18159   18156   18159   18162   18163
   18156   18159   18162   18164   18156   18159   18162   18165
   18157   18156   18159   18160   18157   18156   18159   18161
   18157   18156   18159   18162   18158   18156   18159   18160
   18158   18156   18159   18161   18158   18156   18159   18162
   18159   18162   18165   18166   18159   18162   18165   18167
   18159   18162   18165   18168   18160   18159   18162   18163
   18160   18159   18162   18164   18160   18159   18162   18165
   18161   18159   18162   18163   18161   18159   18162   18164
   18161   18159   18162   18165   18163   18162   18165   18166
   18163   18162   18165   18167   18163   18162   18165   18168
   18164   18162   18165   18166   18164   18162   18165   18167
   18164   18162   18165   18168   18169   18172   18175   18176
   18169   18172   18175   18177   18169   18172   18175   18178
   18170   18169   18172   18173   18170   18169   18172   18174
   18170   18169   18172   18175   18171   18169   18172   18173
   18171   18169   18172   18174   18171   18169   18172   18175
   18172   18175   18178   18179   18172   18175   18178   18180
   18172   18175   18178   18181   18173   18172   18175   18176
   18173   18172   18175   18177   18173   18172   18175   18178
   18174   18172   18175   18176   18174   18172   18175   18177
   18174   18172   18175   18178   18175   18178   18181   18182
   18175   18178   18181   18183   18175   18178   18181   18184
   18176   18175   18178   18179   18176   18175   18178   18180
   18176   18175   18178   18181   18177   18175   18178   18179
   18177   18175   18178   18180   18177   18175   18178   18181
   18178   18181   18184   18185   18178   18181   18184   18186
   18178   18181   18184   18187   18179   18178   18181   18182
   18179   18178   18181   18183   18179   18178   18181   18184
   18180   18178   18181   18182   18180   18178   18181   18183
   18180   18178   18181   18184   18181   18184   18187   18188
   18181   18184   18187   18189   18181   18184   18187   18190
   18182   18181   18184   18185   18182   18181   18184   18186
   18182   18181   18184   18187   18183   18181   18184   18185
   18183   18181   18184   18186   18183   18181   18184   18187
   18184   18187   18190   18191   18184   18187   18190   18192
   18184   18187   18190   18193   18185   18184   18187   18188
   18185   18184   18187   18189   18185   18184   18187   18190
   18186   18184   18187   18188   18186   18184   18187   18189
   18186   18184   18187   18190   18187   18190   18193   18194
   18187   18190   18193   18195   18187   18190   18193   18196
   18188   18187   18190   18191   18188   18187   18190   18192
   18188   18187   18190   18193   18189   18187   18190   18191
   18189   18187   18190   18192   18189   18187   18190   18193
   18190   18193   18196   18197   18190   18193   18196   18198
   18190   18193   18196   18199   18191   18190   18193   18194
   18191   18190   18193   18195   18191   18190   18193   18196
   18192   18190   18193   18194   18192   18190   18193   18195
   18192   18190   18193   18196   18193   18196   18199   18200
   18193   18196   18199   18201   18193   18196   18199   18202
   18194   18193   18196   18197   18194   18193   18196   18198
   18194   18193   18196   18199   18195   18193   18196   18197
   18195   18193   18196   18198   18195   18193   18196   18199
   18196   18199   18202   18203   18196   18199   18202   18204
   18196   18199   18202   18205   18197   18196   18199   18200
   18197   18196   18199   18201   18197   18196   18199   18202
   18198   18196   18199   18200   18198   18196   18199   18201
   18198   18196   18199   18202   18200   18199   18202   18203
   18200   18199   18202   18204   18200   18199   18202   18205
   18201   18199   18202   18203   18201   18199   18202   18204
   18201   18199   18202   18205   18206   18219   18222   18223
   18206   18219   18222   18224   18206   18219   18222   18229
   18207   18206   18211   18212   18207   18206   18211   18213
   18207   18206   18211   18214   18207   18206   18215   18216
   18207   18206   18215   18217   18207   18206   18215   18218
   18207   18206   18219   18220   18207   18206   18219   18221
   18207   18206   18219   18222   18211   18206   18207   18208
   18211   18206   18207   18209   18211   18206   18207   18210
   18211   18206   18215   18216   18211   18206   18215   18217
   18211   18206   18215   18218   18211   18206   18219   18220
   18211   18206   18219   18221   18211   18206   18219   18222
   18215   18206   18207   18208   18215   18206   18207   18209
   18215   18206   18207   18210   18215   18206   18211   18212
   18215   18206   18211   18213   18215   18206   18211   18214
   18215   18206   18219   18220   18215   18206   18219   18221
   18215   18206   18219   18222   18219   18206   18207   18208
   18219   18206   18207   18209   18219   18206   18207   18210
   18219   18206   18211   18212   18219   18206   18211   18213
   18219   18206   18211   18214   18219   18206   18215   18216
   18219   18206   18215   18217   18219   18206   18215   18218
   18219   18222   18229   18225   18220   18219   18222   18223
   18220   18219   18222   18224   18220   18219   18222   18229
   18221   18219   18222   18223   18221   18219   18222   18224
   18221   18219   18222   18229   18223   18222   18229   18225
   18224   18222   18229   18225   18225   18228   18230   18231
   18225   18228   18230   18232   18225   18228   18230   18233
   18226   18225   18229   18222   18226   18225   18228   18230
   18227   18225   18229   18222   18227   18225   18228   18230
   18228   18225   18229   18222   18228   18230   18233   18234
   18228   18230   18233   18241   18228   18230   18233   18235
   18229   18225   18228   18230   18230   18233   18241   18242
   18230   18233   18241   18243   18230   18233   18241   18244
   18230   18233   18235   18236   18231   18230   18233   18234
   18231   18230   18233   18241   18231   18230   18233   18235
   18232   18230   18233   18234   18232   18230   18233   18241
   18232   18230   18233   18235   18233   18241   18244   18245
   18233   18235   18236   18238   18233   18235   18236   18237
   18234   18233   18241   18242   18234   18233   18241   18243
   18234   18233   18241   18244   18234   18233   18235   18236
   18235   18236   18238   18239   18235   18236   18238   18240
   18235   18236   18238   18250   18235   18233   18241   18242
   18235   18233   18241   18243   18235   18233   18241   18244
   18236   18238   18250   18251   18236   18238   18250   18252
   18236   18238   18250   18253   18237   18236   18238   18239
   18237   18236   18238   18240   18237   18236   18238   18250
   18238   18250   18253   18254   18238   18250   18253   18255
   18238   18250   18253   18256   18239   18238   18250   18251
   18239   18238   18250   18252   18239   18238   18250   18253
   18240   18238   18250   18251   18240   18238   18250   18252
   18240   18238   18250   18253   18241   18233   18235   18236
   18241   18244   18245   18247   18241   18244   18245   18246
   18242   18241   18244   18245   18243   18241   18244   18245
   18244   18245   18247   18248   18244   18245   18247   18249
   18244   18245   18247   18287   18245   18247   18287   18288
   18245   18247   18287   18289   18245   18247   18287   18290
   18246   18245   18247   18248   18246   18245   18247   18249
   18246   18245   18247   18287   18247   18287   18290   18291
   18247   18287   18290   18292   18247   18287   18290   18293
   18248   18247   18287   18288   18248   18247   18287   18289
   18248   18247   18287   18290   18249   18247   18287   18288
   18249   18247   18287   18289   18249   18247   18287   18290
   18250   18253   18256   18257   18250   18253   18256   18258
   18250   18253   18256   18259   18251   18250   18253   18254
   18251   18250   18253   18255   18251   18250   18253   18256
   18252   18250   18253   18254   18252   18250   18253   18255
   18252   18250   18253   18256   18253   18256   18259   18260
   18253   18256   18259   18261   18253   18256   18259   18262
   18254   18253   18256   18257   18254   18253   18256   18258
   18254   18253   18256   18259   18255   18253   18256   18257
   18255   18253   18256   18258   18255   18253   18256   18259
   18256   18259   18262   18263   18256   18259   18262   18264
   18256   18259   18262   18265   18257   18256   18259   18260
   18257   18256   18259   18261   18257   18256   18259   18262
   18258   18256   18259   18260   18258   18256   18259   18261
   18258   18256   18259   18262   18259   18262   18265   18266
   18259   18262   18265   18267   18259   18262   18265   18268
   18260   18259   18262   18263   18260   18259   18262   18264
   18260   18259   18262   18265   18261   18259   18262   18263
   18261   18259   18262   18264   18261   18259   18262   18265
   18262   18265   18268   18269   18262   18265   18268   18270
   18262   18265   18268   18271   18263   18262   18265   18266
   18263   18262   18265   18267   18263   18262   18265   18268
   18264   18262   18265   18266   18264   18262   18265   18267
   18264   18262   18265   18268   18265   18268   18271   18272
   18265   18268   18271   18273   18265   18268   18271   18274
   18266   18265   18268   18269   18266   18265   18268   18270
   18266   18265   18268   18271   18267   18265   18268   18269
   18267   18265   18268   18270   18267   18265   18268   18271
   18268   18271   18274   18275   18268   18271   18274   18276
   18268   18271   18274   18277   18269   18268   18271   18272
   18269   18268   18271   18273   18269   18268   18271   18274
   18270   18268   18271   18272   18270   18268   18271   18273
   18270   18268   18271   18274   18271   18274   18277   18278
   18271   18274   18277   18279   18271   18274   18277   18280
   18272   18271   18274   18275   18272   18271   18274   18276
   18272   18271   18274   18277   18273   18271   18274   18275
   18273   18271   18274   18276   18273   18271   18274   18277
   18274   18277   18280   18281   18274   18277   18280   18282
   18274   18277   18280   18283   18275   18274   18277   18278
   18275   18274   18277   18279   18275   18274   18277   18280
   18276   18274   18277   18278   18276   18274   18277   18279
   18276   18274   18277   18280   18277   18280   18283   18284
   18277   18280   18283   18285   18277   18280   18283   18286
   18278   18277   18280   18281   18278   18277   18280   18282
   18278   18277   18280   18283   18279   18277   18280   18281
   18279   18277   18280   18282   18279   18277   18280   18283
   18281   18280   18283   18284   18281   18280   18283   18285
   18281   18280   18283   18286   18282   18280   18283   18284
   18282   18280   18283   18285   18282   18280   18283   18286
   18287   18290   18293   18294   18287   18290   18293   18295
   18287   18290   18293   18296   18288   18287   18290   18291
   18288   18287   18290   18292   18288   18287   18290   18293
   18289   18287   18290   18291   18289   18287   18290   18292
   18289   18287   18290   18293   18290   18293   18296   18297
   18290   18293   18296   18298   18290   18293   18296   18299
   18291   18290   18293   18294   18291   18290   18293   18295
   18291   18290   18293   18296   18292   18290   18293   18294
   18292   18290   18293   18295   18292   18290   18293   18296
   18293   18296   18299   18300   18293   18296   18299   18301
   18293   18296   18299   18302   18294   18293   18296   18297
   18294   18293   18296   18298   18294   18293   18296   18299
   18295   18293   18296   18297   18295   18293   18296   18298
   18295   18293   18296   18299   18296   18299   18302   18303
   18296   18299   18302   18304   18296   18299   18302   18305
   18297   18296   18299   18300   18297   18296   18299   18301
   18297   18296   18299   18302   18298   18296   18299   18300
   18298   18296   18299   18301   18298   18296   18299   18302
   18299   18302   18305   18306   18299   18302   18305   18307
   18299   18302   18305   18308   18300   18299   18302   18303
   18300   18299   18302   18304   18300   18299   18302   18305
   18301   18299   18302   18303   18301   18299   18302   18304
   18301   18299   18302   18305   18302   18305   18308   18309
   18302   18305   18308   18310   18302   18305   18308   18311
   18303   18302   18305   18306   18303   18302   18305   18307
   18303   18302   18305   18308   18304   18302   18305   18306
   18304   18302   18305   18307   18304   18302   18305   18308
   18305   18308   18311   18312   18305   18308   18311   18313
   18305   18308   18311   18314   18306   18305   18308   18309
   18306   18305   18308   18310   18306   18305   18308   18311
   18307   18305   18308   18309   18307   18305   18308   18310
   18307   18305   18308   18311   18308   18311   18314   18315
   18308   18311   18314   18316   18308   18311   18314   18317
   18309   18308   18311   18312   18309   18308   18311   18313
   18309   18308   18311   18314   18310   18308   18311   18312
   18310   18308   18311   18313   18310   18308   18311   18314
   18311   18314   18317   18318   18311   18314   18317   18319
   18311   18314   18317   18320   18312   18311   18314   18315
   18312   18311   18314   18316   18312   18311   18314   18317
   18313   18311   18314   18315   18313   18311   18314   18316
   18313   18311   18314   18317   18314   18317   18320   18321
   18314   18317   18320   18322   18314   18317   18320   18323
   18315   18314   18317   18318   18315   18314   18317   18319
   18315   18314   18317   18320   18316   18314   18317   18318
   18316   18314   18317   18319   18316   18314   18317   18320
   18318   18317   18320   18321   18318   18317   18320   18322
   18318   18317   18320   18323   18319   18317   18320   18321
   18319   18317   18320   18322   18319   18317   18320   18323
   18324   18337   18340   18341   18324   18337   18340   18342
   18324   18337   18340   18347   18325   18324   18329   18330
   18325   18324   18329   18331   18325   18324   18329   18332
   18325   18324   18333   18334   18325   18324   18333   18335
   18325   18324   18333   18336   18325   18324   18337   18338
   18325   18324   18337   18339   18325   18324   18337   18340
   18329   18324   18325   18326   18329   18324   18325   18327
   18329   18324   18325   18328   18329   18324   18333   18334
   18329   18324   18333   18335   18329   18324   18333   18336
   18329   18324   18337   18338   18329   18324   18337   18339
   18329   18324   18337   18340   18333   18324   18325   18326
   18333   18324   18325   18327   18333   18324   18325   18328
   18333   18324   18329   18330   18333   18324   18329   18331
   18333   18324   18329   18332   18333   18324   18337   18338
   18333   18324   18337   18339   18333   18324   18337   18340
   18337   18324   18325   18326   18337   18324   18325   18327
   18337   18324   18325   18328   18337   18324   18329   18330
   18337   18324   18329   18331   18337   18324   18329   18332
   18337   18324   18333   18334   18337   18324   18333   18335
   18337   18324   18333   18336   18337   18340   18347   18343
   18338   18337   18340   18341   18338   18337   18340   18342
   18338   18337   18340   18347   18339   18337   18340   18341
   18339   18337   18340   18342   18339   18337   18340   18347
   18341   18340   18347   18343   18342   18340   18347   18343
   18343   18346   18348   18349   18343   18346   18348   18350
   18343   18346   18348   18351   18344   18343   18347   18340
   18344   18343   18346   18348   18345   18343   18347   18340
   18345   18343   18346   18348   18346   18343   18347   18340
   18346   18348   18351   18352   18346   18348   18351   18359
   18346   18348   18351   18353   18347   18343   18346   18348
   18348   18351   18359   18360   18348   18351   18359   18361
   18348   18351   18359   18362   18348   18351   18353   18354
   18349   18348   18351   18352   18349   18348   18351   18359
   18349   18348   18351   18353   18350   18348   18351   18352
   18350   18348   18351   18359   18350   18348   18351   18353
   18351   18359   18362   18363   18351   18353   18354   18356
   18351   18353   18354   18355   18352   18351   18359   18360
   18352   18351   18359   18361   18352   18351   18359   18362
   18352   18351   18353   18354   18353   18354   18356   18357
   18353   18354   18356   18358   18353   18354   18356   18368
   18353   18351   18359   18360   18353   18351   18359   18361
   18353   18351   18359   18362   18354   18356   18368   18369
   18354   18356   18368   18370   18354   18356   18368   18371
   18355   18354   18356   18357   18355   18354   18356   18358
   18355   18354   18356   18368   18356   18368   18371   18372
   18356   18368   18371   18373   18356   18368   18371   18374
   18357   18356   18368   18369   18357   18356   18368   18370
   18357   18356   18368   18371   18358   18356   18368   18369
   18358   18356   18368   18370   18358   18356   18368   18371
   18359   18351   18353   18354   18359   18362   18363   18365
   18359   18362   18363   18364   18360   18359   18362   18363
   18361   18359   18362   18363   18362   18363   18365   18366
   18362   18363   18365   18367   18362   18363   18365   18405
   18363   18365   18405   18406   18363   18365   18405   18407
   18363   18365   18405   18408   18364   18363   18365   18366
   18364   18363   18365   18367   18364   18363   18365   18405
   18365   18405   18408   18409   18365   18405   18408   18410
   18365   18405   18408   18411   18366   18365   18405   18406
   18366   18365   18405   18407   18366   18365   18405   18408
   18367   18365   18405   18406   18367   18365   18405   18407
   18367   18365   18405   18408   18368   18371   18374   18375
   18368   18371   18374   18376   18368   18371   18374   18377
   18369   18368   18371   18372   18369   18368   18371   18373
   18369   18368   18371   18374   18370   18368   18371   18372
   18370   18368   18371   18373   18370   18368   18371   18374
   18371   18374   18377   18378   18371   18374   18377   18379
   18371   18374   18377   18380   18372   18371   18374   18375
   18372   18371   18374   18376   18372   18371   18374   18377
   18373   18371   18374   18375   18373   18371   18374   18376
   18373   18371   18374   18377   18374   18377   18380   18381
   18374   18377   18380   18382   18374   18377   18380   18383
   18375   18374   18377   18378   18375   18374   18377   18379
   18375   18374   18377   18380   18376   18374   18377   18378
   18376   18374   18377   18379   18376   18374   18377   18380
   18377   18380   18383   18384   18377   18380   18383   18385
   18377   18380   18383   18386   18378   18377   18380   18381
   18378   18377   18380   18382   18378   18377   18380   18383
   18379   18377   18380   18381   18379   18377   18380   18382
   18379   18377   18380   18383   18380   18383   18386   18387
   18380   18383   18386   18388   18380   18383   18386   18389
   18381   18380   18383   18384   18381   18380   18383   18385
   18381   18380   18383   18386   18382   18380   18383   18384
   18382   18380   18383   18385   18382   18380   18383   18386
   18383   18386   18389   18390   18383   18386   18389   18391
   18383   18386   18389   18392   18384   18383   18386   18387
   18384   18383   18386   18388   18384   18383   18386   18389
   18385   18383   18386   18387   18385   18383   18386   18388
   18385   18383   18386   18389   18386   18389   18392   18393
   18386   18389   18392   18394   18386   18389   18392   18395
   18387   18386   18389   18390   18387   18386   18389   18391
   18387   18386   18389   18392   18388   18386   18389   18390
   18388   18386   18389   18391   18388   18386   18389   18392
   18389   18392   18395   18396   18389   18392   18395   18397
   18389   18392   18395   18398   18390   18389   18392   18393
   18390   18389   18392   18394   18390   18389   18392   18395
   18391   18389   18392   18393   18391   18389   18392   18394
   18391   18389   18392   18395   18392   18395   18398   18399
   18392   18395   18398   18400   18392   18395   18398   18401
   18393   18392   18395   18396   18393   18392   18395   18397
   18393   18392   18395   18398   18394   18392   18395   18396
   18394   18392   18395   18397   18394   18392   18395   18398
   18395   18398   18401   18402   18395   18398   18401   18403
   18395   18398   18401   18404   18396   18395   18398   18399
   18396   18395   18398   18400   18396   18395   18398   18401
   18397   18395   18398   18399   18397   18395   18398   18400
   18397   18395   18398   18401   18399   18398   18401   18402
   18399   18398   18401   18403   18399   18398   18401   18404
   18400   18398   18401   18402   18400   18398   18401   18403
   18400   18398   18401   18404   18405   18408   18411   18412
   18405   18408   18411   18413   18405   18408   18411   18414
   18406   18405   18408   18409   18406   18405   18408   18410
   18406   18405   18408   18411   18407   18405   18408   18409
   18407   18405   18408   18410   18407   18405   18408   18411
   18408   18411   18414   18415   18408   18411   18414   18416
   18408   18411   18414   18417   18409   18408   18411   18412
   18409   18408   18411   18413   18409   18408   18411   18414
   18410   18408   18411   18412   18410   18408   18411   18413
   18410   18408   18411   18414   18411   18414   18417   18418
   18411   18414   18417   18419   18411   18414   18417   18420
   18412   18411   18414   18415   18412   18411   18414   18416
   18412   18411   18414   18417   18413   18411   18414   18415
   18413   18411   18414   18416   18413   18411   18414   18417
   18414   18417   18420   18421   18414   18417   18420   18422
   18414   18417   18420   18423   18415   18414   18417   18418
   18415   18414   18417   18419   18415   18414   18417   18420
   18416   18414   18417   18418   18416   18414   18417   18419
   18416   18414   18417   18420   18417   18420   18423   18424
   18417   18420   18423   18425   18417   18420   18423   18426
   18418   18417   18420   18421   18418   18417   18420   18422
   18418   18417   18420   18423   18419   18417   18420   18421
   18419   18417   18420   18422   18419   18417   18420   18423
   18420   18423   18426   18427   18420   18423   18426   18428
   18420   18423   18426   18429   18421   18420   18423   18424
   18421   18420   18423   18425   18421   18420   18423   18426
   18422   18420   18423   18424   18422   18420   18423   18425
   18422   18420   18423   18426   18423   18426   18429   18430
   18423   18426   18429   18431   18423   18426   18429   18432
   18424   18423   18426   18427   18424   18423   18426   18428
   18424   18423   18426   18429   18425   18423   18426   18427
   18425   18423   18426   18428   18425   18423   18426   18429
   18426   18429   18432   18433   18426   18429   18432   18434
   18426   18429   18432   18435   18427   18426   18429   18430
   18427   18426   18429   18431   18427   18426   18429   18432
   18428   18426   18429   18430   18428   18426   18429   18431
   18428   18426   18429   18432   18429   18432   18435   18436
   18429   18432   18435   18437   18429   18432   18435   18438
   18430   18429   18432   18433   18430   18429   18432   18434
   18430   18429   18432   18435   18431   18429   18432   18433
   18431   18429   18432   18434   18431   18429   18432   18435
   18432   18435   18438   18439   18432   18435   18438   18440
   18432   18435   18438   18441   18433   18432   18435   18436
   18433   18432   18435   18437   18433   18432   18435   18438
   18434   18432   18435   18436   18434   18432   18435   18437
   18434   18432   18435   18438   18436   18435   18438   18439
   18436   18435   18438   18440   18436   18435   18438   18441
   18437   18435   18438   18439   18437   18435   18438   18440
   18437   18435   18438   18441   18442   18455   18458   18459
   18442   18455   18458   18460   18442   18455   18458   18465
   18443   18442   18447   18448   18443   18442   18447   18449
   18443   18442   18447   18450   18443   18442   18451   18452
   18443   18442   18451   18453   18443   18442   18451   18454
   18443   18442   18455   18456   18443   18442   18455   18457
   18443   18442   18455   18458   18447   18442   18443   18444
   18447   18442   18443   18445   18447   18442   18443   18446
   18447   18442   18451   18452   18447   18442   18451   18453
   18447   18442   18451   18454   18447   18442   18455   18456
   18447   18442   18455   18457   18447   18442   18455   18458
   18451   18442   18443   18444   18451   18442   18443   18445
   18451   18442   18443   18446   18451   18442   18447   18448
   18451   18442   18447   18449   18451   18442   18447   18450
   18451   18442   18455   18456   18451   18442   18455   18457
   18451   18442   18455   18458   18455   18442   18443   18444
   18455   18442   18443   18445   18455   18442   18443   18446
   18455   18442   18447   18448   18455   18442   18447   18449
   18455   18442   18447   18450   18455   18442   18451   18452
   18455   18442   18451   18453   18455   18442   18451   18454
   18455   18458   18465   18461   18456   18455   18458   18459
   18456   18455   18458   18460   18456   18455   18458   18465
   18457   18455   18458   18459   18457   18455   18458   18460
   18457   18455   18458   18465   18459   18458   18465   18461
   18460   18458   18465   18461   18461   18464   18466   18467
   18461   18464   18466   18468   18461   18464   18466   18469
   18462   18461   18465   18458   18462   18461   18464   18466
   18463   18461   18465   18458   18463   18461   18464   18466
   18464   18461   18465   18458   18464   18466   18469   18470
   18464   18466   18469   18477   18464   18466   18469   18471
   18465   18461   18464   18466   18466   18469   18477   18478
   18466   18469   18477   18479   18466   18469   18477   18480
   18466   18469   18471   18472   18467   18466   18469   18470
   18467   18466   18469   18477   18467   18466   18469   18471
   18468   18466   18469   18470   18468   18466   18469   18477
   18468   18466   18469   18471   18469   18477   18480   18481
   18469   18471   18472   18474   18469   18471   18472   18473
   18470   18469   18477   18478   18470   18469   18477   18479
   18470   18469   18477   18480   18470   18469   18471   18472
   18471   18472   18474   18475   18471   18472   18474   18476
   18471   18472   18474   18486   18471   18469   18477   18478
   18471   18469   18477   18479   18471   18469   18477   18480
   18472   18474   18486   18487   18472   18474   18486   18488
   18472   18474   18486   18489   18473   18472   18474   18475
   18473   18472   18474   18476   18473   18472   18474   18486
   18474   18486   18489   18490   18474   18486   18489   18491
   18474   18486   18489   18492   18475   18474   18486   18487
   18475   18474   18486   18488   18475   18474   18486   18489
   18476   18474   18486   18487   18476   18474   18486   18488
   18476   18474   18486   18489   18477   18469   18471   18472
   18477   18480   18481   18483   18477   18480   18481   18482
   18478   18477   18480   18481   18479   18477   18480   18481
   18480   18481   18483   18484   18480   18481   18483   18485
   18480   18481   18483   18523   18481   18483   18523   18524
   18481   18483   18523   18525   18481   18483   18523   18526
   18482   18481   18483   18484   18482   18481   18483   18485
   18482   18481   18483   18523   18483   18523   18526   18527
   18483   18523   18526   18528   18483   18523   18526   18529
   18484   18483   18523   18524   18484   18483   18523   18525
   18484   18483   18523   18526   18485   18483   18523   18524
   18485   18483   18523   18525   18485   18483   18523   18526
   18486   18489   18492   18493   18486   18489   18492   18494
   18486   18489   18492   18495   18487   18486   18489   18490
   18487   18486   18489   18491   18487   18486   18489   18492
   18488   18486   18489   18490   18488   18486   18489   18491
   18488   18486   18489   18492   18489   18492   18495   18496
   18489   18492   18495   18497   18489   18492   18495   18498
   18490   18489   18492   18493   18490   18489   18492   18494
   18490   18489   18492   18495   18491   18489   18492   18493
   18491   18489   18492   18494   18491   18489   18492   18495
   18492   18495   18498   18499   18492   18495   18498   18500
   18492   18495   18498   18501   18493   18492   18495   18496
   18493   18492   18495   18497   18493   18492   18495   18498
   18494   18492   18495   18496   18494   18492   18495   18497
   18494   18492   18495   18498   18495   18498   18501   18502
   18495   18498   18501   18503   18495   18498   18501   18504
   18496   18495   18498   18499   18496   18495   18498   18500
   18496   18495   18498   18501   18497   18495   18498   18499
   18497   18495   18498   18500   18497   18495   18498   18501
   18498   18501   18504   18505   18498   18501   18504   18506
   18498   18501   18504   18507   18499   18498   18501   18502
   18499   18498   18501   18503   18499   18498   18501   18504
   18500   18498   18501   18502   18500   18498   18501   18503
   18500   18498   18501   18504   18501   18504   18507   18508
   18501   18504   18507   18509   18501   18504   18507   18510
   18502   18501   18504   18505   18502   18501   18504   18506
   18502   18501   18504   18507   18503   18501   18504   18505
   18503   18501   18504   18506   18503   18501   18504   18507
   18504   18507   18510   18511   18504   18507   18510   18512
   18504   18507   18510   18513   18505   18504   18507   18508
   18505   18504   18507   18509   18505   18504   18507   18510
   18506   18504   18507   18508   18506   18504   18507   18509
   18506   18504   18507   18510   18507   18510   18513   18514
   18507   18510   18513   18515   18507   18510   18513   18516
   18508   18507   18510   18511   18508   18507   18510   18512
   18508   18507   18510   18513   18509   18507   18510   18511
   18509   18507   18510   18512   18509   18507   18510   18513
   18510   18513   18516   18517   18510   18513   18516   18518
   18510   18513   18516   18519   18511   18510   18513   18514
   18511   18510   18513   18515   18511   18510   18513   18516
   18512   18510   18513   18514   18512   18510   18513   18515
   18512   18510   18513   18516   18513   18516   18519   18520
   18513   18516   18519   18521   18513   18516   18519   18522
   18514   18513   18516   18517   18514   18513   18516   18518
   18514   18513   18516   18519   18515   18513   18516   18517
   18515   18513   18516   18518   18515   18513   18516   18519
   18517   18516   18519   18520   18517   18516   18519   18521
   18517   18516   18519   18522   18518   18516   18519   18520
   18518   18516   18519   18521   18518   18516   18519   18522
   18523   18526   18529   18530   18523   18526   18529   18531
   18523   18526   18529   18532   18524   18523   18526   18527
   18524   18523   18526   18528   18524   18523   18526   18529
   18525   18523   18526   18527   18525   18523   18526   18528
   18525   18523   18526   18529   18526   18529   18532   18533
   18526   18529   18532   18534   18526   18529   18532   18535
   18527   18526   18529   18530   18527   18526   18529   18531
   18527   18526   18529   18532   18528   18526   18529   18530
   18528   18526   18529   18531   18528   18526   18529   18532
   18529   18532   18535   18536   18529   18532   18535   18537
   18529   18532   18535   18538   18530   18529   18532   18533
   18530   18529   18532   18534   18530   18529   18532   18535
   18531   18529   18532   18533   18531   18529   18532   18534
   18531   18529   18532   18535   18532   18535   18538   18539
   18532   18535   18538   18540   18532   18535   18538   18541
   18533   18532   18535   18536   18533   18532   18535   18537
   18533   18532   18535   18538   18534   18532   18535   18536
   18534   18532   18535   18537   18534   18532   18535   18538
   18535   18538   18541   18542   18535   18538   18541   18543
   18535   18538   18541   18544   18536   18535   18538   18539
   18536   18535   18538   18540   18536   18535   18538   18541
   18537   18535   18538   18539   18537   18535   18538   18540
   18537   18535   18538   18541   18538   18541   18544   18545
   18538   18541   18544   18546   18538   18541   18544   18547
   18539   18538   18541   18542   18539   18538   18541   18543
   18539   18538   18541   18544   18540   18538   18541   18542
   18540   18538   18541   18543   18540   18538   18541   18544
   18541   18544   18547   18548   18541   18544   18547   18549
   18541   18544   18547   18550   18542   18541   18544   18545
   18542   18541   18544   18546   18542   18541   18544   18547
   18543   18541   18544   18545   18543   18541   18544   18546
   18543   18541   18544   18547   18544   18547   18550   18551
   18544   18547   18550   18552   18544   18547   18550   18553
   18545   18544   18547   18548   18545   18544   18547   18549
   18545   18544   18547   18550   18546   18544   18547   18548
   18546   18544   18547   18549   18546   18544   18547   18550
   18547   18550   18553   18554   18547   18550   18553   18555
   18547   18550   18553   18556   18548   18547   18550   18551
   18548   18547   18550   18552   18548   18547   18550   18553
   18549   18547   18550   18551   18549   18547   18550   18552
   18549   18547   18550   18553   18550   18553   18556   18557
   18550   18553   18556   18558   18550   18553   18556   18559
   18551   18550   18553   18554   18551   18550   18553   18555
   18551   18550   18553   18556   18552   18550   18553   18554
   18552   18550   18553   18555   18552   18550   18553   18556
   18554   18553   18556   18557   18554   18553   18556   18558
   18554   18553   18556   18559   18555   18553   18556   18557
   18555   18553   18556   18558   18555   18553   18556   18559
   18560   18573   18576   18577   18560   18573   18576   18578
   18560   18573   18576   18583   18561   18560   18565   18566
   18561   18560   18565   18567   18561   18560   18565   18568
   18561   18560   18569   18570   18561   18560   18569   18571
   18561   18560   18569   18572   18561   18560   18573   18574
   18561   18560   18573   18575   18561   18560   18573   18576
   18565   18560   18561   18562   18565   18560   18561   18563
   18565   18560   18561   18564   18565   18560   18569   18570
   18565   18560   18569   18571   18565   18560   18569   18572
   18565   18560   18573   18574   18565   18560   18573   18575
   18565   18560   18573   18576   18569   18560   18561   18562
   18569   18560   18561   18563   18569   18560   18561   18564
   18569   18560   18565   18566   18569   18560   18565   18567
   18569   18560   18565   18568   18569   18560   18573   18574
   18569   18560   18573   18575   18569   18560   18573   18576
   18573   18560   18561   18562   18573   18560   18561   18563
   18573   18560   18561   18564   18573   18560   18565   18566
   18573   18560   18565   18567   18573   18560   18565   18568
   18573   18560   18569   18570   18573   18560   18569   18571
   18573   18560   18569   18572   18573   18576   18583   18579
   18574   18573   18576   18577   18574   18573   18576   18578
   18574   18573   18576   18583   18575   18573   18576   18577
   18575   18573   18576   18578   18575   18573   18576   18583
   18577   18576   18583   18579   18578   18576   18583   18579
   18579   18582   18584   18585   18579   18582   18584   18586
   18579   18582   18584   18587   18580   18579   18583   18576
   18580   18579   18582   18584   18581   18579   18583   18576
   18581   18579   18582   18584   18582   18579   18583   18576
   18582   18584   18587   18588   18582   18584   18587   18595
   18582   18584   18587   18589   18583   18579   18582   18584
   18584   18587   18595   18596   18584   18587   18595   18597
   18584   18587   18595   18598   18584   18587   18589   18590
   18585   18584   18587   18588   18585   18584   18587   18595
   18585   18584   18587   18589   18586   18584   18587   18588
   18586   18584   18587   18595   18586   18584   18587   18589
   18587   18595   18598   18599   18587   18589   18590   18592
   18587   18589   18590   18591   18588   18587   18595   18596
   18588   18587   18595   18597   18588   18587   18595   18598
   18588   18587   18589   18590   18589   18590   18592   18593
   18589   18590   18592   18594   18589   18590   18592   18604
   18589   18587   18595   18596   18589   18587   18595   18597
   18589   18587   18595   18598   18590   18592   18604   18605
   18590   18592   18604   18606   18590   18592   18604   18607
   18591   18590   18592   18593   18591   18590   18592   18594
   18591   18590   18592   18604   18592   18604   18607   18608
   18592   18604   18607   18609   18592   18604   18607   18610
   18593   18592   18604   18605   18593   18592   18604   18606
   18593   18592   18604   18607   18594   18592   18604   18605
   18594   18592   18604   18606   18594   18592   18604   18607
   18595   18587   18589   18590   18595   18598   18599   18601
   18595   18598   18599   18600   18596   18595   18598   18599
   18597   18595   18598   18599   18598   18599   18601   18602
   18598   18599   18601   18603   18598   18599   18601   18641
   18599   18601   18641   18642   18599   18601   18641   18643
   18599   18601   18641   18644   18600   18599   18601   18602
   18600   18599   18601   18603   18600   18599   18601   18641
   18601   18641   18644   18645   18601   18641   18644   18646
   18601   18641   18644   18647   18602   18601   18641   18642
   18602   18601   18641   18643   18602   18601   18641   18644
   18603   18601   18641   18642   18603   18601   18641   18643
   18603   18601   18641   18644   18604   18607   18610   18611
   18604   18607   18610   18612   18604   18607   18610   18613
   18605   18604   18607   18608   18605   18604   18607   18609
   18605   18604   18607   18610   18606   18604   18607   18608
   18606   18604   18607   18609   18606   18604   18607   18610
   18607   18610   18613   18614   18607   18610   18613   18615
   18607   18610   18613   18616   18608   18607   18610   18611
   18608   18607   18610   18612   18608   18607   18610   18613
   18609   18607   18610   18611   18609   18607   18610   18612
   18609   18607   18610   18613   18610   18613   18616   18617
   18610   18613   18616   18618   18610   18613   18616   18619
   18611   18610   18613   18614   18611   18610   18613   18615
   18611   18610   18613   18616   18612   18610   18613   18614
   18612   18610   18613   18615   18612   18610   18613   18616
   18613   18616   18619   18620   18613   18616   18619   18621
   18613   18616   18619   18622   18614   18613   18616   18617
   18614   18613   18616   18618   18614   18613   18616   18619
   18615   18613   18616   18617   18615   18613   18616   18618
   18615   18613   18616   18619   18616   18619   18622   18623
   18616   18619   18622   18624   18616   18619   18622   18625
   18617   18616   18619   18620   18617   18616   18619   18621
   18617   18616   18619   18622   18618   18616   18619   18620
   18618   18616   18619   18621   18618   18616   18619   18622
   18619   18622   18625   18626   18619   18622   18625   18627
   18619   18622   18625   18628   18620   18619   18622   18623
   18620   18619   18622   18624   18620   18619   18622   18625
   18621   18619   18622   18623   18621   18619   18622   18624
   18621   18619   18622   18625   18622   18625   18628   18629
   18622   18625   18628   18630   18622   18625   18628   18631
   18623   18622   18625   18626   18623   18622   18625   18627
   18623   18622   18625   18628   18624   18622   18625   18626
   18624   18622   18625   18627   18624   18622   18625   18628
   18625   18628   18631   18632   18625   18628   18631   18633
   18625   18628   18631   18634   18626   18625   18628   18629
   18626   18625   18628   18630   18626   18625   18628   18631
   18627   18625   18628   18629   18627   18625   18628   18630
   18627   18625   18628   18631   18628   18631   18634   18635
   18628   18631   18634   18636   18628   18631   18634   18637
   18629   18628   18631   18632   18629   18628   18631   18633
   18629   18628   18631   18634   18630   18628   18631   18632
   18630   18628   18631   18633   18630   18628   18631   18634
   18631   18634   18637   18638   18631   18634   18637   18639
   18631   18634   18637   18640   18632   18631   18634   18635
   18632   18631   18634   18636   18632   18631   18634   18637
   18633   18631   18634   18635   18633   18631   18634   18636
   18633   18631   18634   18637   18635   18634   18637   18638
   18635   18634   18637   18639   18635   18634   18637   18640
   18636   18634   18637   18638   18636   18634   18637   18639
   18636   18634   18637   18640   18641   18644   18647   18648
   18641   18644   18647   18649   18641   18644   18647   18650
   18642   18641   18644   18645   18642   18641   18644   18646
   18642   18641   18644   18647   18643   18641   18644   18645
   18643   18641   18644   18646   18643   18641   18644   18647
   18644   18647   18650   18651   18644   18647   18650   18652
   18644   18647   18650   18653   18645   18644   18647   18648
   18645   18644   18647   18649   18645   18644   18647   18650
   18646   18644   18647   18648   18646   18644   18647   18649
   18646   18644   18647   18650   18647   18650   18653   18654
   18647   18650   18653   18655   18647   18650   18653   18656
   18648   18647   18650   18651   18648   18647   18650   18652
   18648   18647   18650   18653   18649   18647   18650   18651
   18649   18647   18650   18652   18649   18647   18650   18653
   18650   18653   18656   18657   18650   18653   18656   18658
   18650   18653   18656   18659   18651   18650   18653   18654
   18651   18650   18653   18655   18651   18650   18653   18656
   18652   18650   18653   18654   18652   18650   18653   18655
   18652   18650   18653   18656   18653   18656   18659   18660
   18653   18656   18659   18661   18653   18656   18659   18662
   18654   18653   18656   18657   18654   18653   18656   18658
   18654   18653   18656   18659   18655   18653   18656   18657
   18655   18653   18656   18658   18655   18653   18656   18659
   18656   18659   18662   18663   18656   18659   18662   18664
   18656   18659   18662   18665   18657   18656   18659   18660
   18657   18656   18659   18661   18657   18656   18659   18662
   18658   18656   18659   18660   18658   18656   18659   18661
   18658   18656   18659   18662   18659   18662   18665   18666
   18659   18662   18665   18667   18659   18662   18665   18668
   18660   18659   18662   18663   18660   18659   18662   18664
   18660   18659   18662   18665   18661   18659   18662   18663
   18661   18659   18662   18664   18661   18659   18662   18665
   18662   18665   18668   18669   18662   18665   18668   18670
   18662   18665   18668   18671   18663   18662   18665   18666
   18663   18662   18665   18667   18663   18662   18665   18668
   18664   18662   18665   18666   18664   18662   18665   18667
   18664   18662   18665   18668   18665   18668   18671   18672
   18665   18668   18671   18673   18665   18668   18671   18674
   18666   18665   18668   18669   18666   18665   18668   18670
   18666   18665   18668   18671   18667   18665   18668   18669
   18667   18665   18668   18670   18667   18665   18668   18671
   18668   18671   18674   18675   18668   18671   18674   18676
   18668   18671   18674   18677   18669   18668   18671   18672
   18669   18668   18671   18673   18669   18668   18671   18674
   18670   18668   18671   18672   18670   18668   18671   18673
   18670   18668   18671   18674   18672   18671   18674   18675
   18672   18671   18674   18676   18672   18671   18674   18677
   18673   18671   18674   18675   18673   18671   18674   18676
   18673   18671   18674   18677   18678   18691   18694   18695
   18678   18691   18694   18696   18678   18691   18694   18701
   18679   18678   18683   18684   18679   18678   18683   18685
   18679   18678   18683   18686   18679   18678   18687   18688
   18679   18678   18687   18689   18679   18678   18687   18690
   18679   18678   18691   18692   18679   18678   18691   18693
   18679   18678   18691   18694   18683   18678   18679   18680
   18683   18678   18679   18681   18683   18678   18679   18682
   18683   18678   18687   18688   18683   18678   18687   18689
   18683   18678   18687   18690   18683   18678   18691   18692
   18683   18678   18691   18693   18683   18678   18691   18694
   18687   18678   18679   18680   18687   18678   18679   18681
   18687   18678   18679   18682   18687   18678   18683   18684
   18687   18678   18683   18685   18687   18678   18683   18686
   18687   18678   18691   18692   18687   18678   18691   18693
   18687   18678   18691   18694   18691   18678   18679   18680
   18691   18678   18679   18681   18691   18678   18679   18682
   18691   18678   18683   18684   18691   18678   18683   18685
   18691   18678   18683   18686   18691   18678   18687   18688
   18691   18678   18687   18689   18691   18678   18687   18690
   18691   18694   18701   18697   18692   18691   18694   18695
   18692   18691   18694   18696   18692   18691   18694   18701
   18693   18691   18694   18695   18693   18691   18694   18696
   18693   18691   18694   18701   18695   18694   18701   18697
   18696   18694   18701   18697   18697   18700   18702   18703
   18697   18700   18702   18704   18697   18700   18702   18705
   18698   18697   18701   18694   18698   18697   18700   18702
   18699   18697   18701   18694   18699   18697   18700   18702
   18700   18697   18701   18694   18700   18702   18705   18706
   18700   18702   18705   18713   18700   18702   18705   18707
   18701   18697   18700   18702   18702   18705   18713   18714
   18702   18705   18713   18715   18702   18705   18713   18716
   18702   18705   18707   18708   18703   18702   18705   18706
   18703   18702   18705   18713   18703   18702   18705   18707
   18704   18702   18705   18706   18704   18702   18705   18713
   18704   18702   18705   18707   18705   18713   18716   18717
   18705   18707   18708   18710   18705   18707   18708   18709
   18706   18705   18713   18714   18706   18705   18713   18715
   18706   18705   18713   18716   18706   18705   18707   18708
   18707   18708   18710   18711   18707   18708   18710   18712
   18707   18708   18710   18722   18707   18705   18713   18714
   18707   18705   18713   18715   18707   18705   18713   18716
   18708   18710   18722   18723   18708   18710   18722   18724
   18708   18710   18722   18725   18709   18708   18710   18711
   18709   18708   18710   18712   18709   18708   18710   18722
   18710   18722   18725   18726   18710   18722   18725   18727
   18710   18722   18725   18728   18711   18710   18722   18723
   18711   18710   18722   18724   18711   18710   18722   18725
   18712   18710   18722   18723   18712   18710   18722   18724
   18712   18710   18722   18725   18713   18705   18707   18708
   18713   18716   18717   18719   18713   18716   18717   18718
   18714   18713   18716   18717   18715   18713   18716   18717
   18716   18717   18719   18720   18716   18717   18719   18721
   18716   18717   18719   18759   18717   18719   18759   18760
   18717   18719   18759   18761   18717   18719   18759   18762
   18718   18717   18719   18720   18718   18717   18719   18721
   18718   18717   18719   18759   18719   18759   18762   18763
   18719   18759   18762   18764   18719   18759   18762   18765
   18720   18719   18759   18760   18720   18719   18759   18761
   18720   18719   18759   18762   18721   18719   18759   18760
   18721   18719   18759   18761   18721   18719   18759   18762
   18722   18725   18728   18729   18722   18725   18728   18730
   18722   18725   18728   18731   18723   18722   18725   18726
   18723   18722   18725   18727   18723   18722   18725   18728
   18724   18722   18725   18726   18724   18722   18725   18727
   18724   18722   18725   18728   18725   18728   18731   18732
   18725   18728   18731   18733   18725   18728   18731   18734
   18726   18725   18728   18729   18726   18725   18728   18730
   18726   18725   18728   18731   18727   18725   18728   18729
   18727   18725   18728   18730   18727   18725   18728   18731
   18728   18731   18734   18735   18728   18731   18734   18736
   18728   18731   18734   18737   18729   18728   18731   18732
   18729   18728   18731   18733   18729   18728   18731   18734
   18730   18728   18731   18732   18730   18728   18731   18733
   18730   18728   18731   18734   18731   18734   18737   18738
   18731   18734   18737   18739   18731   18734   18737   18740
   18732   18731   18734   18735   18732   18731   18734   18736
   18732   18731   18734   18737   18733   18731   18734   18735
   18733   18731   18734   18736   18733   18731   18734   18737
   18734   18737   18740   18741   18734   18737   18740   18742
   18734   18737   18740   18743   18735   18734   18737   18738
   18735   18734   18737   18739   18735   18734   18737   18740
   18736   18734   18737   18738   18736   18734   18737   18739
   18736   18734   18737   18740   18737   18740   18743   18744
   18737   18740   18743   18745   18737   18740   18743   18746
   18738   18737   18740   18741   18738   18737   18740   18742
   18738   18737   18740   18743   18739   18737   18740   18741
   18739   18737   18740   18742   18739   18737   18740   18743
   18740   18743   18746   18747   18740   18743   18746   18748
   18740   18743   18746   18749   18741   18740   18743   18744
   18741   18740   18743   18745   18741   18740   18743   18746
   18742   18740   18743   18744   18742   18740   18743   18745
   18742   18740   18743   18746   18743   18746   18749   18750
   18743   18746   18749   18751   18743   18746   18749   18752
   18744   18743   18746   18747   18744   18743   18746   18748
   18744   18743   18746   18749   18745   18743   18746   18747
   18745   18743   18746   18748   18745   18743   18746   18749
   18746   18749   18752   18753   18746   18749   18752   18754
   18746   18749   18752   18755   18747   18746   18749   18750
   18747   18746   18749   18751   18747   18746   18749   18752
   18748   18746   18749   18750   18748   18746   18749   18751
   18748   18746   18749   18752   18749   18752   18755   18756
   18749   18752   18755   18757   18749   18752   18755   18758
   18750   18749   18752   18753   18750   18749   18752   18754
   18750   18749   18752   18755   18751   18749   18752   18753
   18751   18749   18752   18754   18751   18749   18752   18755
   18753   18752   18755   18756   18753   18752   18755   18757
   18753   18752   18755   18758   18754   18752   18755   18756
   18754   18752   18755   18757   18754   18752   18755   18758
   18759   18762   18765   18766   18759   18762   18765   18767
   18759   18762   18765   18768   18760   18759   18762   18763
   18760   18759   18762   18764   18760   18759   18762   18765
   18761   18759   18762   18763   18761   18759   18762   18764
   18761   18759   18762   18765   18762   18765   18768   18769
   18762   18765   18768   18770   18762   18765   18768   18771
   18763   18762   18765   18766   18763   18762   18765   18767
   18763   18762   18765   18768   18764   18762   18765   18766
   18764   18762   18765   18767   18764   18762   18765   18768
   18765   18768   18771   18772   18765   18768   18771   18773
   18765   18768   18771   18774   18766   18765   18768   18769
   18766   18765   18768   18770   18766   18765   18768   18771
   18767   18765   18768   18769   18767   18765   18768   18770
   18767   18765   18768   18771   18768   18771   18774   18775
   18768   18771   18774   18776   18768   18771   18774   18777
   18769   18768   18771   18772   18769   18768   18771   18773
   18769   18768   18771   18774   18770   18768   18771   18772
   18770   18768   18771   18773   18770   18768   18771   18774
   18771   18774   18777   18778   18771   18774   18777   18779
   18771   18774   18777   18780   18772   18771   18774   18775
   18772   18771   18774   18776   18772   18771   18774   18777
   18773   18771   18774   18775   18773   18771   18774   18776
   18773   18771   18774   18777   18774   18777   18780   18781
   18774   18777   18780   18782   18774   18777   18780   18783
   18775   18774   18777   18778   18775   18774   18777   18779
   18775   18774   18777   18780   18776   18774   18777   18778
   18776   18774   18777   18779   18776   18774   18777   18780
   18777   18780   18783   18784   18777   18780   18783   18785
   18777   18780   18783   18786   18778   18777   18780   18781
   18778   18777   18780   18782   18778   18777   18780   18783
   18779   18777   18780   18781   18779   18777   18780   18782
   18779   18777   18780   18783   18780   18783   18786   18787
   18780   18783   18786   18788   18780   18783   18786   18789
   18781   18780   18783   18784   18781   18780   18783   18785
   18781   18780   18783   18786   18782   18780   18783   18784
   18782   18780   18783   18785   18782   18780   18783   18786
   18783   18786   18789   18790   18783   18786   18789   18791
   18783   18786   18789   18792   18784   18783   18786   18787
   18784   18783   18786   18788   18784   18783   18786   18789
   18785   18783   18786   18787   18785   18783   18786   18788
   18785   18783   18786   18789   18786   18789   18792   18793
   18786   18789   18792   18794   18786   18789   18792   18795
   18787   18786   18789   18790   18787   18786   18789   18791
   18787   18786   18789   18792   18788   18786   18789   18790
   18788   18786   18789   18791   18788   18786   18789   18792
   18790   18789   18792   18793   18790   18789   18792   18794
   18790   18789   18792   18795   18791   18789   18792   18793
   18791   18789   18792   18794   18791   18789   18792   18795
   18796   18809   18812   18813   18796   18809   18812   18814
   18796   18809   18812   18819   18797   18796   18801   18802
   18797   18796   18801   18803   18797   18796   18801   18804
   18797   18796   18805   18806   18797   18796   18805   18807
   18797   18796   18805   18808   18797   18796   18809   18810
   18797   18796   18809   18811   18797   18796   18809   18812
   18801   18796   18797   18798   18801   18796   18797   18799
   18801   18796   18797   18800   18801   18796   18805   18806
   18801   18796   18805   18807   18801   18796   18805   18808
   18801   18796   18809   18810   18801   18796   18809   18811
   18801   18796   18809   18812   18805   18796   18797   18798
   18805   18796   18797   18799   18805   18796   18797   18800
   18805   18796   18801   18802   18805   18796   18801   18803
   18805   18796   18801   18804   18805   18796   18809   18810
   18805   18796   18809   18811   18805   18796   18809   18812
   18809   18796   18797   18798   18809   18796   18797   18799
   18809   18796   18797   18800   18809   18796   18801   18802
   18809   18796   18801   18803   18809   18796   18801   18804
   18809   18796   18805   18806   18809   18796   18805   18807
   18809   18796   18805   18808   18809   18812   18819   18815
   18810   18809   18812   18813   18810   18809   18812   18814
   18810   18809   18812   18819   18811   18809   18812   18813
   18811   18809   18812   18814   18811   18809   18812   18819
   18813   18812   18819   18815   18814   18812   18819   18815
   18815   18818   18820   18821   18815   18818   18820   18822
   18815   18818   18820   18823   18816   18815   18819   18812
   18816   18815   18818   18820   18817   18815   18819   18812
   18817   18815   18818   18820   18818   18815   18819   18812
   18818   18820   18823   18824   18818   18820   18823   18831
   18818   18820   18823   18825   18819   18815   18818   18820
   18820   18823   18831   18832   18820   18823   18831   18833
   18820   18823   18831   18834   18820   18823   18825   18826
   18821   18820   18823   18824   18821   18820   18823   18831
   18821   18820   18823   18825   18822   18820   18823   18824
   18822   18820   18823   18831   18822   18820   18823   18825
   18823   18831   18834   18835   18823   18825   18826   18828
   18823   18825   18826   18827   18824   18823   18831   18832
   18824   18823   18831   18833   18824   18823   18831   18834
   18824   18823   18825   18826   18825   18826   18828   18829
   18825   18826   18828   18830   18825   18826   18828   18840
   18825   18823   18831   18832   18825   18823   18831   18833
   18825   18823   18831   18834   18826   18828   18840   18841
   18826   18828   18840   18842   18826   18828   18840   18843
   18827   18826   18828   18829   18827   18826   18828   18830
   18827   18826   18828   18840   18828   18840   18843   18844
   18828   18840   18843   18845   18828   18840   18843   18846
   18829   18828   18840   18841   18829   18828   18840   18842
   18829   18828   18840   18843   18830   18828   18840   18841
   18830   18828   18840   18842   18830   18828   18840   18843
   18831   18823   18825   18826   18831   18834   18835   18837
   18831   18834   18835   18836   18832   18831   18834   18835
   18833   18831   18834   18835   18834   18835   18837   18838
   18834   18835   18837   18839   18834   18835   18837   18877
   18835   18837   18877   18878   18835   18837   18877   18879
   18835   18837   18877   18880   18836   18835   18837   18838
   18836   18835   18837   18839   18836   18835   18837   18877
   18837   18877   18880   18881   18837   18877   18880   18882
   18837   18877   18880   18883   18838   18837   18877   18878
   18838   18837   18877   18879   18838   18837   18877   18880
   18839   18837   18877   18878   18839   18837   18877   18879
   18839   18837   18877   18880   18840   18843   18846   18847
   18840   18843   18846   18848   18840   18843   18846   18849
   18841   18840   18843   18844   18841   18840   18843   18845
   18841   18840   18843   18846   18842   18840   18843   18844
   18842   18840   18843   18845   18842   18840   18843   18846
   18843   18846   18849   18850   18843   18846   18849   18851
   18843   18846   18849   18852   18844   18843   18846   18847
   18844   18843   18846   18848   18844   18843   18846   18849
   18845   18843   18846   18847   18845   18843   18846   18848
   18845   18843   18846   18849   18846   18849   18852   18853
   18846   18849   18852   18854   18846   18849   18852   18855
   18847   18846   18849   18850   18847   18846   18849   18851
   18847   18846   18849   18852   18848   18846   18849   18850
   18848   18846   18849   18851   18848   18846   18849   18852
   18849   18852   18855   18856   18849   18852   18855   18857
   18849   18852   18855   18858   18850   18849   18852   18853
   18850   18849   18852   18854   18850   18849   18852   18855
   18851   18849   18852   18853   18851   18849   18852   18854
   18851   18849   18852   18855   18852   18855   18858   18859
   18852   18855   18858   18860   18852   18855   18858   18861
   18853   18852   18855   18856   18853   18852   18855   18857
   18853   18852   18855   18858   18854   18852   18855   18856
   18854   18852   18855   18857   18854   18852   18855   18858
   18855   18858   18861   18862   18855   18858   18861   18863
   18855   18858   18861   18864   18856   18855   18858   18859
   18856   18855   18858   18860   18856   18855   18858   18861
   18857   18855   18858   18859   18857   18855   18858   18860
   18857   18855   18858   18861   18858   18861   18864   18865
   18858   18861   18864   18866   18858   18861   18864   18867
   18859   18858   18861   18862   18859   18858   18861   18863
   18859   18858   18861   18864   18860   18858   18861   18862
   18860   18858   18861   18863   18860   18858   18861   18864
   18861   18864   18867   18868   18861   18864   18867   18869
   18861   18864   18867   18870   18862   18861   18864   18865
   18862   18861   18864   18866   18862   18861   18864   18867
   18863   18861   18864   18865   18863   18861   18864   18866
   18863   18861   18864   18867   18864   18867   18870   18871
   18864   18867   18870   18872   18864   18867   18870   18873
   18865   18864   18867   18868   18865   18864   18867   18869
   18865   18864   18867   18870   18866   18864   18867   18868
   18866   18864   18867   18869   18866   18864   18867   18870
   18867   18870   18873   18874   18867   18870   18873   18875
   18867   18870   18873   18876   18868   18867   18870   18871
   18868   18867   18870   18872   18868   18867   18870   18873
   18869   18867   18870   18871   18869   18867   18870   18872
   18869   18867   18870   18873   18871   18870   18873   18874
   18871   18870   18873   18875   18871   18870   18873   18876
   18872   18870   18873   18874   18872   18870   18873   18875
   18872   18870   18873   18876   18877   18880   18883   18884
   18877   18880   18883   18885   18877   18880   18883   18886
   18878   18877   18880   18881   18878   18877   18880   18882
   18878   18877   18880   18883   18879   18877   18880   18881
   18879   18877   18880   18882   18879   18877   18880   18883
   18880   18883   18886   18887   18880   18883   18886   18888
   18880   18883   18886   18889   18881   18880   18883   18884
   18881   18880   18883   18885   18881   18880   18883   18886
   18882   18880   18883   18884   18882   18880   18883   18885
   18882   18880   18883   18886   18883   18886   18889   18890
   18883   18886   18889   18891   18883   18886   18889   18892
   18884   18883   18886   18887   18884   18883   18886   18888
   18884   18883   18886   18889   18885   18883   18886   18887
   18885   18883   18886   18888   18885   18883   18886   18889
   18886   18889   18892   18893   18886   18889   18892   18894
   18886   18889   18892   18895   18887   18886   18889   18890
   18887   18886   18889   18891   18887   18886   18889   18892
   18888   18886   18889   18890   18888   18886   18889   18891
   18888   18886   18889   18892   18889   18892   18895   18896
   18889   18892   18895   18897   18889   18892   18895   18898
   18890   18889   18892   18893   18890   18889   18892   18894
   18890   18889   18892   18895   18891   18889   18892   18893
   18891   18889   18892   18894   18891   18889   18892   18895
   18892   18895   18898   18899   18892   18895   18898   18900
   18892   18895   18898   18901   18893   18892   18895   18896
   18893   18892   18895   18897   18893   18892   18895   18898
   18894   18892   18895   18896   18894   18892   18895   18897
   18894   18892   18895   18898   18895   18898   18901   18902
   18895   18898   18901   18903   18895   18898   18901   18904
   18896   18895   18898   18899   18896   18895   18898   18900
   18896   18895   18898   18901   18897   18895   18898   18899
   18897   18895   18898   18900   18897   18895   18898   18901
   18898   18901   18904   18905   18898   18901   18904   18906
   18898   18901   18904   18907   18899   18898   18901   18902
   18899   18898   18901   18903   18899   18898   18901   18904
   18900   18898   18901   18902   18900   18898   18901   18903
   18900   18898   18901   18904   18901   18904   18907   18908
   18901   18904   18907   18909   18901   18904   18907   18910
   18902   18901   18904   18905   18902   18901   18904   18906
   18902   18901   18904   18907   18903   18901   18904   18905
   18903   18901   18904   18906   18903   18901   18904   18907
   18904   18907   18910   18911   18904   18907   18910   18912
   18904   18907   18910   18913   18905   18904   18907   18908
   18905   18904   18907   18909   18905   18904   18907   18910
   18906   18904   18907   18908   18906   18904   18907   18909
   18906   18904   18907   18910   18908   18907   18910   18911
   18908   18907   18910   18912   18908   18907   18910   18913
   18909   18907   18910   18911   18909   18907   18910   18912
   18909   18907   18910   18913   18914   18927   18930   18931
   18914   18927   18930   18932   18914   18927   18930   18937
   18915   18914   18919   18920   18915   18914   18919   18921
   18915   18914   18919   18922   18915   18914   18923   18924
   18915   18914   18923   18925   18915   18914   18923   18926
   18915   18914   18927   18928   18915   18914   18927   18929
   18915   18914   18927   18930   18919   18914   18915   18916
   18919   18914   18915   18917   18919   18914   18915   18918
   18919   18914   18923   18924   18919   18914   18923   18925
   18919   18914   18923   18926   18919   18914   18927   18928
   18919   18914   18927   18929   18919   18914   18927   18930
   18923   18914   18915   18916   18923   18914   18915   18917
   18923   18914   18915   18918   18923   18914   18919   18920
   18923   18914   18919   18921   18923   18914   18919   18922
   18923   18914   18927   18928   18923   18914   18927   18929
   18923   18914   18927   18930   18927   18914   18915   18916
   18927   18914   18915   18917   18927   18914   18915   18918
   18927   18914   18919   18920   18927   18914   18919   18921
   18927   18914   18919   18922   18927   18914   18923   18924
   18927   18914   18923   18925   18927   18914   18923   18926
   18927   18930   18937   18933   18928   18927   18930   18931
   18928   18927   18930   18932   18928   18927   18930   18937
   18929   18927   18930   18931   18929   18927   18930   18932
   18929   18927   18930   18937   18931   18930   18937   18933
   18932   18930   18937   18933   18933   18936   18938   18939
   18933   18936   18938   18940   18933   18936   18938   18941
   18934   18933   18937   18930   18934   18933   18936   18938
   18935   18933   18937   18930   18935   18933   18936   18938
   18936   18933   18937   18930   18936   18938   18941   18942
   18936   18938   18941   18949   18936   18938   18941   18943
   18937   18933   18936   18938   18938   18941   18949   18950
   18938   18941   18949   18951   18938   18941   18949   18952
   18938   18941   18943   18944   18939   18938   18941   18942
   18939   18938   18941   18949   18939   18938   18941   18943
   18940   18938   18941   18942   18940   18938   18941   18949
   18940   18938   18941   18943   18941   18949   18952   18953
   18941   18943   18944   18946   18941   18943   18944   18945
   18942   18941   18949   18950   18942   18941   18949   18951
   18942   18941   18949   18952   18942   18941   18943   18944
   18943   18944   18946   18947   18943   18944   18946   18948
   18943   18944   18946   18958   18943   18941   18949   18950
   18943   18941   18949   18951   18943   18941   18949   18952
   18944   18946   18958   18959   18944   18946   18958   18960
   18944   18946   18958   18961   18945   18944   18946   18947
   18945   18944   18946   18948   18945   18944   18946   18958
   18946   18958   18961   18962   18946   18958   18961   18963
   18946   18958   18961   18964   18947   18946   18958   18959
   18947   18946   18958   18960   18947   18946   18958   18961
   18948   18946   18958   18959   18948   18946   18958   18960
   18948   18946   18958   18961   18949   18941   18943   18944
   18949   18952   18953   18955   18949   18952   18953   18954
   18950   18949   18952   18953   18951   18949   18952   18953
   18952   18953   18955   18956   18952   18953   18955   18957
   18952   18953   18955   18995   18953   18955   18995   18996
   18953   18955   18995   18997   18953   18955   18995   18998
   18954   18953   18955   18956   18954   18953   18955   18957
   18954   18953   18955   18995   18955   18995   18998   18999
   18955   18995   18998   19000   18955   18995   18998   19001
   18956   18955   18995   18996   18956   18955   18995   18997
   18956   18955   18995   18998   18957   18955   18995   18996
   18957   18955   18995   18997   18957   18955   18995   18998
   18958   18961   18964   18965   18958   18961   18964   18966
   18958   18961   18964   18967   18959   18958   18961   18962
   18959   18958   18961   18963   18959   18958   18961   18964
   18960   18958   18961   18962   18960   18958   18961   18963
   18960   18958   18961   18964   18961   18964   18967   18968
   18961   18964   18967   18969   18961   18964   18967   18970
   18962   18961   18964   18965   18962   18961   18964   18966
   18962   18961   18964   18967   18963   18961   18964   18965
   18963   18961   18964   18966   18963   18961   18964   18967
   18964   18967   18970   18971   18964   18967   18970   18972
   18964   18967   18970   18973   18965   18964   18967   18968
   18965   18964   18967   18969   18965   18964   18967   18970
   18966   18964   18967   18968   18966   18964   18967   18969
   18966   18964   18967   18970   18967   18970   18973   18974
   18967   18970   18973   18975   18967   18970   18973   18976
   18968   18967   18970   18971   18968   18967   18970   18972
   18968   18967   18970   18973   18969   18967   18970   18971
   18969   18967   18970   18972   18969   18967   18970   18973
   18970   18973   18976   18977   18970   18973   18976   18978
   18970   18973   18976   18979   18971   18970   18973   18974
   18971   18970   18973   18975   18971   18970   18973   18976
   18972   18970   18973   18974   18972   18970   18973   18975
   18972   18970   18973   18976   18973   18976   18979   18980
   18973   18976   18979   18981   18973   18976   18979   18982
   18974   18973   18976   18977   18974   18973   18976   18978
   18974   18973   18976   18979   18975   18973   18976   18977
   18975   18973   18976   18978   18975   18973   18976   18979
   18976   18979   18982   18983   18976   18979   18982   18984
   18976   18979   18982   18985   18977   18976   18979   18980
   18977   18976   18979   18981   18977   18976   18979   18982
   18978   18976   18979   18980   18978   18976   18979   18981
   18978   18976   18979   18982   18979   18982   18985   18986
   18979   18982   18985   18987   18979   18982   18985   18988
   18980   18979   18982   18983   18980   18979   18982   18984
   18980   18979   18982   18985   18981   18979   18982   18983
   18981   18979   18982   18984   18981   18979   18982   18985
   18982   18985   18988   18989   18982   18985   18988   18990
   18982   18985   18988   18991   18983   18982   18985   18986
   18983   18982   18985   18987   18983   18982   18985   18988
   18984   18982   18985   18986   18984   18982   18985   18987
   18984   18982   18985   18988   18985   18988   18991   18992
   18985   18988   18991   18993   18985   18988   18991   18994
   18986   18985   18988   18989   18986   18985   18988   18990
   18986   18985   18988   18991   18987   18985   18988   18989
   18987   18985   18988   18990   18987   18985   18988   18991
   18989   18988   18991   18992   18989   18988   18991   18993
   18989   18988   18991   18994   18990   18988   18991   18992
   18990   18988   18991   18993   18990   18988   18991   18994
   18995   18998   19001   19002   18995   18998   19001   19003
   18995   18998   19001   19004   18996   18995   18998   18999
   18996   18995   18998   19000   18996   18995   18998   19001
   18997   18995   18998   18999   18997   18995   18998   19000
   18997   18995   18998   19001   18998   19001   19004   19005
   18998   19001   19004   19006   18998   19001   19004   19007
   18999   18998   19001   19002   18999   18998   19001   19003
   18999   18998   19001   19004   19000   18998   19001   19002
   19000   18998   19001   19003   19000   18998   19001   19004
   19001   19004   19007   19008   19001   19004   19007   19009
   19001   19004   19007   19010   19002   19001   19004   19005
   19002   19001   19004   19006   19002   19001   19004   19007
   19003   19001   19004   19005   19003   19001   19004   19006
   19003   19001   19004   19007   19004   19007   19010   19011
   19004   19007   19010   19012   19004   19007   19010   19013
   19005   19004   19007   19008   19005   19004   19007   19009
   19005   19004   19007   19010   19006   19004   19007   19008
   19006   19004   19007   19009   19006   19004   19007   19010
   19007   19010   19013   19014   19007   19010   19013   19015
   19007   19010   19013   19016   19008   19007   19010   19011
   19008   19007   19010   19012   19008   19007   19010   19013
   19009   19007   19010   19011   19009   19007   19010   19012
   19009   19007   19010   19013   19010   19013   19016   19017
   19010   19013   19016   19018   19010   19013   19016   19019
   19011   19010   19013   19014   19011   19010   19013   19015
   19011   19010   19013   19016   19012   19010   19013   19014
   19012   19010   19013   19015   19012   19010   19013   19016
   19013   19016   19019   19020   19013   19016   19019   19021
   19013   19016   19019   19022   19014   19013   19016   19017
   19014   19013   19016   19018   19014   19013   19016   19019
   19015   19013   19016   19017   19015   19013   19016   19018
   19015   19013   19016   19019   19016   19019   19022   19023
   19016   19019   19022   19024   19016   19019   19022   19025
   19017   19016   19019   19020   19017   19016   19019   19021
   19017   19016   19019   19022   19018   19016   19019   19020
   19018   19016   19019   19021   19018   19016   19019   19022
   19019   19022   19025   19026   19019   19022   19025   19027
   19019   19022   19025   19028   19020   19019   19022   19023
   19020   19019   19022   19024   19020   19019   19022   19025
   19021   19019   19022   19023   19021   19019   19022   19024
   19021   19019   19022   19025   19022   19025   19028   19029
   19022   19025   19028   19030   19022   19025   19028   19031
   19023   19022   19025   19026   19023   19022   19025   19027
   19023   19022   19025   19028   19024   19022   19025   19026
   19024   19022   19025   19027   19024   19022   19025   19028
   19026   19025   19028   19029   19026   19025   19028   19030
   19026   19025   19028   19031   19027   19025   19028   19029
   19027   19025   19028   19030   19027   19025   19028   19031
   19032   19045   19048   19049   19032   19045   19048   19050
   19032   19045   19048   19055   19033   19032   19037   19038
   19033   19032   19037   19039   19033   19032   19037   19040
   19033   19032   19041   19042   19033   19032   19041   19043
   19033   19032   19041   19044   19033   19032   19045   19046
   19033   19032   19045   19047   19033   19032   19045   19048
   19037   19032   19033   19034   19037   19032   19033   19035
   19037   19032   19033   19036   19037   19032   19041   19042
   19037   19032   19041   19043   19037   19032   19041   19044
   19037   19032   19045   19046   19037   19032   19045   19047
   19037   19032   19045   19048   19041   19032   19033   19034
   19041   19032   19033   19035   19041   19032   19033   19036
   19041   19032   19037   19038   19041   19032   19037   19039
   19041   19032   19037   19040   19041   19032   19045   19046
   19041   19032   19045   19047   19041   19032   19045   19048
   19045   19032   19033   19034   19045   19032   19033   19035
   19045   19032   19033   19036   19045   19032   19037   19038
   19045   19032   19037   19039   19045   19032   19037   19040
   19045   19032   19041   19042   19045   19032   19041   19043
   19045   19032   19041   19044   19045   19048   19055   19051
   19046   19045   19048   19049   19046   19045   19048   19050
   19046   19045   19048   19055   19047   19045   19048   19049
   19047   19045   19048   19050   19047   19045   19048   19055
   19049   19048   19055   19051   19050   19048   19055   19051
   19051   19054   19056   19057   19051   19054   19056   19058
   19051   19054   19056   19059   19052   19051   19055   19048
   19052   19051   19054   19056   19053   19051   19055   19048
   19053   19051   19054   19056   19054   19051   19055   19048
   19054   19056   19059   19060   19054   19056   19059   19067
   19054   19056   19059   19061   19055   19051   19054   19056
   19056   19059   19067   19068   19056   19059   19067   19069
   19056   19059   19067   19070   19056   19059   19061   19062
   19057   19056   19059   19060   19057   19056   19059   19067
   19057   19056   19059   19061   19058   19056   19059   19060
   19058   19056   19059   19067   19058   19056   19059   19061
   19059   19067   19070   19071   19059   19061   19062   19064
   19059   19061   19062   19063   19060   19059   19067   19068
   19060   19059   19067   19069   19060   19059   19067   19070
   19060   19059   19061   19062   19061   19062   19064   19065
   19061   19062   19064   19066   19061   19062   19064   19076
   19061   19059   19067   19068   19061   19059   19067   19069
   19061   19059   19067   19070   19062   19064   19076   19077
   19062   19064   19076   19078   19062   19064   19076   19079
   19063   19062   19064   19065   19063   19062   19064   19066
   19063   19062   19064   19076   19064   19076   19079   19080
   19064   19076   19079   19081   19064   19076   19079   19082
   19065   19064   19076   19077   19065   19064   19076   19078
   19065   19064   19076   19079   19066   19064   19076   19077
   19066   19064   19076   19078   19066   19064   19076   19079
   19067   19059   19061   19062   19067   19070   19071   19073
   19067   19070   19071   19072   19068   19067   19070   19071
   19069   19067   19070   19071   19070   19071   19073   19074
   19070   19071   19073   19075   19070   19071   19073   19113
   19071   19073   19113   19114   19071   19073   19113   19115
   19071   19073   19113   19116   19072   19071   19073   19074
   19072   19071   19073   19075   19072   19071   19073   19113
   19073   19113   19116   19117   19073   19113   19116   19118
   19073   19113   19116   19119   19074   19073   19113   19114
   19074   19073   19113   19115   19074   19073   19113   19116
   19075   19073   19113   19114   19075   19073   19113   19115
   19075   19073   19113   19116   19076   19079   19082   19083
   19076   19079   19082   19084   19076   19079   19082   19085
   19077   19076   19079   19080   19077   19076   19079   19081
   19077   19076   19079   19082   19078   19076   19079   19080
   19078   19076   19079   19081   19078   19076   19079   19082
   19079   19082   19085   19086   19079   19082   19085   19087
   19079   19082   19085   19088   19080   19079   19082   19083
   19080   19079   19082   19084   19080   19079   19082   19085
   19081   19079   19082   19083   19081   19079   19082   19084
   19081   19079   19082   19085   19082   19085   19088   19089
   19082   19085   19088   19090   19082   19085   19088   19091
   19083   19082   19085   19086   19083   19082   19085   19087
   19083   19082   19085   19088   19084   19082   19085   19086
   19084   19082   19085   19087   19084   19082   19085   19088
   19085   19088   19091   19092   19085   19088   19091   19093
   19085   19088   19091   19094   19086   19085   19088   19089
   19086   19085   19088   19090   19086   19085   19088   19091
   19087   19085   19088   19089   19087   19085   19088   19090
   19087   19085   19088   19091   19088   19091   19094   19095
   19088   19091   19094   19096   19088   19091   19094   19097
   19089   19088   19091   19092   19089   19088   19091   19093
   19089   19088   19091   19094   19090   19088   19091   19092
   19090   19088   19091   19093   19090   19088   19091   19094
   19091   19094   19097   19098   19091   19094   19097   19099
   19091   19094   19097   19100   19092   19091   19094   19095
   19092   19091   19094   19096   19092   19091   19094   19097
   19093   19091   19094   19095   19093   19091   19094   19096
   19093   19091   19094   19097   19094   19097   19100   19101
   19094   19097   19100   19102   19094   19097   19100   19103
   19095   19094   19097   19098   19095   19094   19097   19099
   19095   19094   19097   19100   19096   19094   19097   19098
   19096   19094   19097   19099   19096   19094   19097   19100
   19097   19100   19103   19104   19097   19100   19103   19105
   19097   19100   19103   19106   19098   19097   19100   19101
   19098   19097   19100   19102   19098   19097   19100   19103
   19099   19097   19100   19101   19099   19097   19100   19102
   19099   19097   19100   19103   19100   19103   19106   19107
   19100   19103   19106   19108   19100   19103   19106   19109
   19101   19100   19103   19104   19101   19100   19103   19105
   19101   19100   19103   19106   19102   19100   19103   19104
   19102   19100   19103   19105   19102   19100   19103   19106
   19103   19106   19109   19110   19103   19106   19109   19111
   19103   19106   19109   19112   19104   19103   19106   19107
   19104   19103   19106   19108   19104   19103   19106   19109
   19105   19103   19106   19107   19105   19103   19106   19108
   19105   19103   19106   19109   19107   19106   19109   19110
   19107   19106   19109   19111   19107   19106   19109   19112
   19108   19106   19109   19110   19108   19106   19109   19111
   19108   19106   19109   19112   19113   19116   19119   19120
   19113   19116   19119   19121   19113   19116   19119   19122
   19114   19113   19116   19117   19114   19113   19116   19118
   19114   19113   19116   19119   19115   19113   19116   19117
   19115   19113   19116   19118   19115   19113   19116   19119
   19116   19119   19122   19123   19116   19119   19122   19124
   19116   19119   19122   19125   19117   19116   19119   19120
   19117   19116   19119   19121   19117   19116   19119   19122
   19118   19116   19119   19120   19118   19116   19119   19121
   19118   19116   19119   19122   19119   19122   19125   19126
   19119   19122   19125   19127   19119   19122   19125   19128
   19120   19119   19122   19123   19120   19119   19122   19124
   19120   19119   19122   19125   19121   19119   19122   19123
   19121   19119   19122   19124   19121   19119   19122   19125
   19122   19125   19128   19129   19122   19125   19128   19130
   19122   19125   19128   19131   19123   19122   19125   19126
   19123   19122   19125   19127   19123   19122   19125   19128
   19124   19122   19125   19126   19124   19122   19125   19127
   19124   19122   19125   19128   19125   19128   19131   19132
   19125   19128   19131   19133   19125   19128   19131   19134
   19126   19125   19128   19129   19126   19125   19128   19130
   19126   19125   19128   19131   19127   19125   19128   19129
   19127   19125   19128   19130   19127   19125   19128   19131
   19128   19131   19134   19135   19128   19131   19134   19136
   19128   19131   19134   19137   19129   19128   19131   19132
   19129   19128   19131   19133   19129   19128   19131   19134
   19130   19128   19131   19132   19130   19128   19131   19133
   19130   19128   19131   19134   19131   19134   19137   19138
   19131   19134   19137   19139   19131   19134   19137   19140
   19132   19131   19134   19135   19132   19131   19134   19136
   19132   19131   19134   19137   19133   19131   19134   19135
   19133   19131   19134   19136   19133   19131   19134   19137
   19134   19137   19140   19141   19134   19137   19140   19142
   19134   19137   19140   19143   19135   19134   19137   19138
   19135   19134   19137   19139   19135   19134   19137   19140
   19136   19134   19137   19138   19136   19134   19137   19139
   19136   19134   19137   19140   19137   19140   19143   19144
   19137   19140   19143   19145   19137   19140   19143   19146
   19138   19137   19140   19141   19138   19137   19140   19142
   19138   19137   19140   19143   19139   19137   19140   19141
   19139   19137   19140   19142   19139   19137   19140   19143
   19140   19143   19146   19147   19140   19143   19146   19148
   19140   19143   19146   19149   19141   19140   19143   19144
   19141   19140   19143   19145   19141   19140   19143   19146
   19142   19140   19143   19144   19142   19140   19143   19145
   19142   19140   19143   19146   19144   19143   19146   19147
   19144   19143   19146   19148   19144   19143   19146   19149
   19145   19143   19146   19147   19145   19143   19146   19148
   19145   19143   19146   19149   19150   19163   19166   19167
   19150   19163   19166   19168   19150   19163   19166   19173
   19151   19150   19155   19156   19151   19150   19155   19157
   19151   19150   19155   19158   19151   19150   19159   19160
   19151   19150   19159   19161   19151   19150   19159   19162
   19151   19150   19163   19164   19151   19150   19163   19165
   19151   19150   19163   19166   19155   19150   19151   19152
   19155   19150   19151   19153   19155   19150   19151   19154
   19155   19150   19159   19160   19155   19150   19159   19161
   19155   19150   19159   19162   19155   19150   19163   19164
   19155   19150   19163   19165   19155   19150   19163   19166
   19159   19150   19151   19152   19159   19150   19151   19153
   19159   19150   19151   19154   19159   19150   19155   19156
   19159   19150   19155   19157   19159   19150   19155   19158
   19159   19150   19163   19164   19159   19150   19163   19165
   19159   19150   19163   19166   19163   19150   19151   19152
   19163   19150   19151   19153   19163   19150   19151   19154
   19163   19150   19155   19156   19163   19150   19155   19157
   19163   19150   19155   19158   19163   19150   19159   19160
   19163   19150   19159   19161   19163   19150   19159   19162
   19163   19166   19173   19169   19164   19163   19166   19167
   19164   19163   19166   19168   19164   19163   19166   19173
   19165   19163   19166   19167   19165   19163   19166   19168
   19165   19163   19166   19173   19167   19166   19173   19169
   19168   19166   19173   19169   19169   19172   19174   19175
   19169   19172   19174   19176   19169   19172   19174   19177
   19170   19169   19173   19166   19170   19169   19172   19174
   19171   19169   19173   19166   19171   19169   19172   19174
   19172   19169   19173   19166   19172   19174   19177   19178
   19172   19174   19177   19185   19172   19174   19177   19179
   19173   19169   19172   19174   19174   19177   19185   19186
   19174   19177   19185   19187   19174   19177   19185   19188
   19174   19177   19179   19180   19175   19174   19177   19178
   19175   19174   19177   19185   19175   19174   19177   19179
   19176   19174   19177   19178   19176   19174   19177   19185
   19176   19174   19177   19179   19177   19185   19188   19189
   19177   19179   19180   19182   19177   19179   19180   19181
   19178   19177   19185   19186   19178   19177   19185   19187
   19178   19177   19185   19188   19178   19177   19179   19180
   19179   19180   19182   19183   19179   19180   19182   19184
   19179   19180   19182   19194   19179   19177   19185   19186
   19179   19177   19185   19187   19179   19177   19185   19188
   19180   19182   19194   19195   19180   19182   19194   19196
   19180   19182   19194   19197   19181   19180   19182   19183
   19181   19180   19182   19184   19181   19180   19182   19194
   19182   19194   19197   19198   19182   19194   19197   19199
   19182   19194   19197   19200   19183   19182   19194   19195
   19183   19182   19194   19196   19183   19182   19194   19197
   19184   19182   19194   19195   19184   19182   19194   19196
   19184   19182   19194   19197   19185   19177   19179   19180
   19185   19188   19189   19191   19185   19188   19189   19190
   19186   19185   19188   19189   19187   19185   19188   19189
   19188   19189   19191   19192   19188   19189   19191   19193
   19188   19189   19191   19231   19189   19191   19231   19232
   19189   19191   19231   19233   19189   19191   19231   19234
   19190   19189   19191   19192   19190   19189   19191   19193
   19190   19189   19191   19231   19191   19231   19234   19235
   19191   19231   19234   19236   19191   19231   19234   19237
   19192   19191   19231   19232   19192   19191   19231   19233
   19192   19191   19231   19234   19193   19191   19231   19232
   19193   19191   19231   19233   19193   19191   19231   19234
   19194   19197   19200   19201   19194   19197   19200   19202
   19194   19197   19200   19203   19195   19194   19197   19198
   19195   19194   19197   19199   19195   19194   19197   19200
   19196   19194   19197   19198   19196   19194   19197   19199
   19196   19194   19197   19200   19197   19200   19203   19204
   19197   19200   19203   19205   19197   19200   19203   19206
   19198   19197   19200   19201   19198   19197   19200   19202
   19198   19197   19200   19203   19199   19197   19200   19201
   19199   19197   19200   19202   19199   19197   19200   19203
   19200   19203   19206   19207   19200   19203   19206   19208
   19200   19203   19206   19209   19201   19200   19203   19204
   19201   19200   19203   19205   19201   19200   19203   19206
   19202   19200   19203   19204   19202   19200   19203   19205
   19202   19200   19203   19206   19203   19206   19209   19210
   19203   19206   19209   19211   19203   19206   19209   19212
   19204   19203   19206   19207   19204   19203   19206   19208
   19204   19203   19206   19209   19205   19203   19206   19207
   19205   19203   19206   19208   19205   19203   19206   19209
   19206   19209   19212   19213   19206   19209   19212   19214
   19206   19209   19212   19215   19207   19206   19209   19210
   19207   19206   19209   19211   19207   19206   19209   19212
   19208   19206   19209   19210   19208   19206   19209   19211
   19208   19206   19209   19212   19209   19212   19215   19216
   19209   19212   19215   19217   19209   19212   19215   19218
   19210   19209   19212   19213   19210   19209   19212   19214
   19210   19209   19212   19215   19211   19209   19212   19213
   19211   19209   19212   19214   19211   19209   19212   19215
   19212   19215   19218   19219   19212   19215   19218   19220
   19212   19215   19218   19221   19213   19212   19215   19216
   19213   19212   19215   19217   19213   19212   19215   19218
   19214   19212   19215   19216   19214   19212   19215   19217
   19214   19212   19215   19218   19215   19218   19221   19222
   19215   19218   19221   19223   19215   19218   19221   19224
   19216   19215   19218   19219   19216   19215   19218   19220
   19216   19215   19218   19221   19217   19215   19218   19219
   19217   19215   19218   19220   19217   19215   19218   19221
   19218   19221   19224   19225   19218   19221   19224   19226
   19218   19221   19224   19227   19219   19218   19221   19222
   19219   19218   19221   19223   19219   19218   19221   19224
   19220   19218   19221   19222   19220   19218   19221   19223
   19220   19218   19221   19224   19221   19224   19227   19228
   19221   19224   19227   19229   19221   19224   19227   19230
   19222   19221   19224   19225   19222   19221   19224   19226
   19222   19221   19224   19227   19223   19221   19224   19225
   19223   19221   19224   19226   19223   19221   19224   19227
   19225   19224   19227   19228   19225   19224   19227   19229
   19225   19224   19227   19230   19226   19224   19227   19228
   19226   19224   19227   19229   19226   19224   19227   19230
   19231   19234   19237   19238   19231   19234   19237   19239
   19231   19234   19237   19240   19232   19231   19234   19235
   19232   19231   19234   19236   19232   19231   19234   19237
   19233   19231   19234   19235   19233   19231   19234   19236
   19233   19231   19234   19237   19234   19237   19240   19241
   19234   19237   19240   19242   19234   19237   19240   19243
   19235   19234   19237   19238   19235   19234   19237   19239
   19235   19234   19237   19240   19236   19234   19237   19238
   19236   19234   19237   19239   19236   19234   19237   19240
   19237   19240   19243   19244   19237   19240   19243   19245
   19237   19240   19243   19246   19238   19237   19240   19241
   19238   19237   19240   19242   19238   19237   19240   19243
   19239   19237   19240   19241   19239   19237   19240   19242
   19239   19237   19240   19243   19240   19243   19246   19247
   19240   19243   19246   19248   19240   19243   19246   19249
   19241   19240   19243   19244   19241   19240   19243   19245
   19241   19240   19243   19246   19242   19240   19243   19244
   19242   19240   19243   19245   19242   19240   19243   19246
   19243   19246   19249   19250   19243   19246   19249   19251
   19243   19246   19249   19252   19244   19243   19246   19247
   19244   19243   19246   19248   19244   19243   19246   19249
   19245   19243   19246   19247   19245   19243   19246   19248
   19245   19243   19246   19249   19246   19249   19252   19253
   19246   19249   19252   19254   19246   19249   19252   19255
   19247   19246   19249   19250   19247   19246   19249   19251
   19247   19246   19249   19252   19248   19246   19249   19250
   19248   19246   19249   19251   19248   19246   19249   19252
   19249   19252   19255   19256   19249   19252   19255   19257
   19249   19252   19255   19258   19250   19249   19252   19253
   19250   19249   19252   19254   19250   19249   19252   19255
   19251   19249   19252   19253   19251   19249   19252   19254
   19251   19249   19252   19255   19252   19255   19258   19259
   19252   19255   19258   19260   19252   19255   19258   19261
   19253   19252   19255   19256   19253   19252   19255   19257
   19253   19252   19255   19258   19254   19252   19255   19256
   19254   19252   19255   19257   19254   19252   19255   19258
   19255   19258   19261   19262   19255   19258   19261   19263
   19255   19258   19261   19264   19256   19255   19258   19259
   19256   19255   19258   19260   19256   19255   19258   19261
   19257   19255   19258   19259   19257   19255   19258   19260
   19257   19255   19258   19261   19258   19261   19264   19265
   19258   19261   19264   19266   19258   19261   19264   19267
   19259   19258   19261   19262   19259   19258   19261   19263
   19259   19258   19261   19264   19260   19258   19261   19262
   19260   19258   19261   19263   19260   19258   19261   19264
   19262   19261   19264   19265   19262   19261   19264   19266
   19262   19261   19264   19267   19263   19261   19264   19265
   19263   19261   19264   19266   19263   19261   19264   19267
   19268   19281   19284   19285   19268   19281   19284   19286
   19268   19281   19284   19291   19269   19268   19273   19274
   19269   19268   19273   19275   19269   19268   19273   19276
   19269   19268   19277   19278   19269   19268   19277   19279
   19269   19268   19277   19280   19269   19268   19281   19282
   19269   19268   19281   19283   19269   19268   19281   19284
   19273   19268   19269   19270   19273   19268   19269   19271
   19273   19268   19269   19272   19273   19268   19277   19278
   19273   19268   19277   19279   19273   19268   19277   19280
   19273   19268   19281   19282   19273   19268   19281   19283
   19273   19268   19281   19284   19277   19268   19269   19270
   19277   19268   19269   19271   19277   19268   19269   19272
   19277   19268   19273   19274   19277   19268   19273   19275
   19277   19268   19273   19276   19277   19268   19281   19282
   19277   19268   19281   19283   19277   19268   19281   19284
   19281   19268   19269   19270   19281   19268   19269   19271
   19281   19268   19269   19272   19281   19268   19273   19274
   19281   19268   19273   19275   19281   19268   19273   19276
   19281   19268   19277   19278   19281   19268   19277   19279
   19281   19268   19277   19280   19281   19284   19291   19287
   19282   19281   19284   19285   19282   19281   19284   19286
   19282   19281   19284   19291   19283   19281   19284   19285
   19283   19281   19284   19286   19283   19281   19284   19291
   19285   19284   19291   19287   19286   19284   19291   19287
   19287   19290   19292   19293   19287   19290   19292   19294
   19287   19290   19292   19295   19288   19287   19291   19284
   19288   19287   19290   19292   19289   19287   19291   19284
   19289   19287   19290   19292   19290   19287   19291   19284
   19290   19292   19295   19296   19290   19292   19295   19303
   19290   19292   19295   19297   19291   19287   19290   19292
   19292   19295   19303   19304   19292   19295   19303   19305
   19292   19295   19303   19306   19292   19295   19297   19298
   19293   19292   19295   19296   19293   19292   19295   19303
   19293   19292   19295   19297   19294   19292   19295   19296
   19294   19292   19295   19303   19294   19292   19295   19297
   19295   19303   19306   19307   19295   19297   19298   19300
   19295   19297   19298   19299   19296   19295   19303   19304
   19296   19295   19303   19305   19296   19295   19303   19306
   19296   19295   19297   19298   19297   19298   19300   19301
   19297   19298   19300   19302   19297   19298   19300   19312
   19297   19295   19303   19304   19297   19295   19303   19305
   19297   19295   19303   19306   19298   19300   19312   19313
   19298   19300   19312   19314   19298   19300   19312   19315
   19299   19298   19300   19301   19299   19298   19300   19302
   19299   19298   19300   19312   19300   19312   19315   19316
   19300   19312   19315   19317   19300   19312   19315   19318
   19301   19300   19312   19313   19301   19300   19312   19314
   19301   19300   19312   19315   19302   19300   19312   19313
   19302   19300   19312   19314   19302   19300   19312   19315
   19303   19295   19297   19298   19303   19306   19307   19309
   19303   19306   19307   19308   19304   19303   19306   19307
   19305   19303   19306   19307   19306   19307   19309   19310
   19306   19307   19309   19311   19306   19307   19309   19349
   19307   19309   19349   19350   19307   19309   19349   19351
   19307   19309   19349   19352   19308   19307   19309   19310
   19308   19307   19309   19311   19308   19307   19309   19349
   19309   19349   19352   19353   19309   19349   19352   19354
   19309   19349   19352   19355   19310   19309   19349   19350
   19310   19309   19349   19351   19310   19309   19349   19352
   19311   19309   19349   19350   19311   19309   19349   19351
   19311   19309   19349   19352   19312   19315   19318   19319
   19312   19315   19318   19320   19312   19315   19318   19321
   19313   19312   19315   19316   19313   19312   19315   19317
   19313   19312   19315   19318   19314   19312   19315   19316
   19314   19312   19315   19317   19314   19312   19315   19318
   19315   19318   19321   19322   19315   19318   19321   19323
   19315   19318   19321   19324   19316   19315   19318   19319
   19316   19315   19318   19320   19316   19315   19318   19321
   19317   19315   19318   19319   19317   19315   19318   19320
   19317   19315   19318   19321   19318   19321   19324   19325
   19318   19321   19324   19326   19318   19321   19324   19327
   19319   19318   19321   19322   19319   19318   19321   19323
   19319   19318   19321   19324   19320   19318   19321   19322
   19320   19318   19321   19323   19320   19318   19321   19324
   19321   19324   19327   19328   19321   19324   19327   19329
   19321   19324   19327   19330   19322   19321   19324   19325
   19322   19321   19324   19326   19322   19321   19324   19327
   19323   19321   19324   19325   19323   19321   19324   19326
   19323   19321   19324   19327   19324   19327   19330   19331
   19324   19327   19330   19332   19324   19327   19330   19333
   19325   19324   19327   19328   19325   19324   19327   19329
   19325   19324   19327   19330   19326   19324   19327   19328
   19326   19324   19327   19329   19326   19324   19327   19330
   19327   19330   19333   19334   19327   19330   19333   19335
   19327   19330   19333   19336   19328   19327   19330   19331
   19328   19327   19330   19332   19328   19327   19330   19333
   19329   19327   19330   19331   19329   19327   19330   19332
   19329   19327   19330   19333   19330   19333   19336   19337
   19330   19333   19336   19338   19330   19333   19336   19339
   19331   19330   19333   19334   19331   19330   19333   19335
   19331   19330   19333   19336   19332   19330   19333   19334
   19332   19330   19333   19335   19332   19330   19333   19336
   19333   19336   19339   19340   19333   19336   19339   19341
   19333   19336   19339   19342   19334   19333   19336   19337
   19334   19333   19336   19338   19334   19333   19336   19339
   19335   19333   19336   19337   19335   19333   19336   19338
   19335   19333   19336   19339   19336   19339   19342   19343
   19336   19339   19342   19344   19336   19339   19342   19345
   19337   19336   19339   19340   19337   19336   19339   19341
   19337   19336   19339   19342   19338   19336   19339   19340
   19338   19336   19339   19341   19338   19336   19339   19342
   19339   19342   19345   19346   19339   19342   19345   19347
   19339   19342   19345   19348   19340   19339   19342   19343
   19340   19339   19342   19344   19340   19339   19342   19345
   19341   19339   19342   19343   19341   19339   19342   19344
   19341   19339   19342   19345   19343   19342   19345   19346
   19343   19342   19345   19347   19343   19342   19345   19348
   19344   19342   19345   19346   19344   19342   19345   19347
   19344   19342   19345   19348   19349   19352   19355   19356
   19349   19352   19355   19357   19349   19352   19355   19358
   19350   19349   19352   19353   19350   19349   19352   19354
   19350   19349   19352   19355   19351   19349   19352   19353
   19351   19349   19352   19354   19351   19349   19352   19355
   19352   19355   19358   19359   19352   19355   19358   19360
   19352   19355   19358   19361   19353   19352   19355   19356
   19353   19352   19355   19357   19353   19352   19355   19358
   19354   19352   19355   19356   19354   19352   19355   19357
   19354   19352   19355   19358   19355   19358   19361   19362
   19355   19358   19361   19363   19355   19358   19361   19364
   19356   19355   19358   19359   19356   19355   19358   19360
   19356   19355   19358   19361   19357   19355   19358   19359
   19357   19355   19358   19360   19357   19355   19358   19361
   19358   19361   19364   19365   19358   19361   19364   19366
   19358   19361   19364   19367   19359   19358   19361   19362
   19359   19358   19361   19363   19359   19358   19361   19364
   19360   19358   19361   19362   19360   19358   19361   19363
   19360   19358   19361   19364   19361   19364   19367   19368
   19361   19364   19367   19369   19361   19364   19367   19370
   19362   19361   19364   19365   19362   19361   19364   19366
   19362   19361   19364   19367   19363   19361   19364   19365
   19363   19361   19364   19366   19363   19361   19364   19367
   19364   19367   19370   19371   19364   19367   19370   19372
   19364   19367   19370   19373   19365   19364   19367   19368
   19365   19364   19367   19369   19365   19364   19367   19370
   19366   19364   19367   19368   19366   19364   19367   19369
   19366   19364   19367   19370   19367   19370   19373   19374
   19367   19370   19373   19375   19367   19370   19373   19376
   19368   19367   19370   19371   19368   19367   19370   19372
   19368   19367   19370   19373   19369   19367   19370   19371
   19369   19367   19370   19372   19369   19367   19370   19373
   19370   19373   19376   19377   19370   19373   19376   19378
   19370   19373   19376   19379   19371   19370   19373   19374
   19371   19370   19373   19375   19371   19370   19373   19376
   19372   19370   19373   19374   19372   19370   19373   19375
   19372   19370   19373   19376   19373   19376   19379   19380
   19373   19376   19379   19381   19373   19376   19379   19382
   19374   19373   19376   19377   19374   19373   19376   19378
   19374   19373   19376   19379   19375   19373   19376   19377
   19375   19373   19376   19378   19375   19373   19376   19379
   19376   19379   19382   19383   19376   19379   19382   19384
   19376   19379   19382   19385   19377   19376   19379   19380
   19377   19376   19379   19381   19377   19376   19379   19382
   19378   19376   19379   19380   19378   19376   19379   19381
   19378   19376   19379   19382   19380   19379   19382   19383
   19380   19379   19382   19384   19380   19379   19382   19385
   19381   19379   19382   19383   19381   19379   19382   19384
   19381   19379   19382   19385   19386   19399   19402   19403
   19386   19399   19402   19404   19386   19399   19402   19409
   19387   19386   19391   19392   19387   19386   19391   19393
   19387   19386   19391   19394   19387   19386   19395   19396
   19387   19386   19395   19397   19387   19386   19395   19398
   19387   19386   19399   19400   19387   19386   19399   19401
   19387   19386   19399   19402   19391   19386   19387   19388
   19391   19386   19387   19389   19391   19386   19387   19390
   19391   19386   19395   19396   19391   19386   19395   19397
   19391   19386   19395   19398   19391   19386   19399   19400
   19391   19386   19399   19401   19391   19386   19399   19402
   19395   19386   19387   19388   19395   19386   19387   19389
   19395   19386   19387   19390   19395   19386   19391   19392
   19395   19386   19391   19393   19395   19386   19391   19394
   19395   19386   19399   19400   19395   19386   19399   19401
   19395   19386   19399   19402   19399   19386   19387   19388
   19399   19386   19387   19389   19399   19386   19387   19390
   19399   19386   19391   19392   19399   19386   19391   19393
   19399   19386   19391   19394   19399   19386   19395   19396
   19399   19386   19395   19397   19399   19386   19395   19398
   19399   19402   19409   19405   19400   19399   19402   19403
   19400   19399   19402   19404   19400   19399   19402   19409
   19401   19399   19402   19403   19401   19399   19402   19404
   19401   19399   19402   19409   19403   19402   19409   19405
   19404   19402   19409   19405   19405   19408   19410   19411
   19405   19408   19410   19412   19405   19408   19410   19413
   19406   19405   19409   19402   19406   19405   19408   19410
   19407   19405   19409   19402   19407   19405   19408   19410
   19408   19405   19409   19402   19408   19410   19413   19414
   19408   19410   19413   19421   19408   19410   19413   19415
   19409   19405   19408   19410   19410   19413   19421   19422
   19410   19413   19421   19423   19410   19413   19421   19424
   19410   19413   19415   19416   19411   19410   19413   19414
   19411   19410   19413   19421   19411   19410   19413   19415
   19412   19410   19413   19414   19412   19410   19413   19421
   19412   19410   19413   19415   19413   19421   19424   19425
   19413   19415   19416   19418   19413   19415   19416   19417
   19414   19413   19421   19422   19414   19413   19421   19423
   19414   19413   19421   19424   19414   19413   19415   19416
   19415   19416   19418   19419   19415   19416   19418   19420
   19415   19416   19418   19430   19415   19413   19421   19422
   19415   19413   19421   19423   19415   19413   19421   19424
   19416   19418   19430   19431   19416   19418   19430   19432
   19416   19418   19430   19433   19417   19416   19418   19419
   19417   19416   19418   19420   19417   19416   19418   19430
   19418   19430   19433   19434   19418   19430   19433   19435
   19418   19430   19433   19436   19419   19418   19430   19431
   19419   19418   19430   19432   19419   19418   19430   19433
   19420   19418   19430   19431   19420   19418   19430   19432
   19420   19418   19430   19433   19421   19413   19415   19416
   19421   19424   19425   19427   19421   19424   19425   19426
   19422   19421   19424   19425   19423   19421   19424   19425
   19424   19425   19427   19428   19424   19425   19427   19429
   19424   19425   19427   19467   19425   19427   19467   19468
   19425   19427   19467   19469   19425   19427   19467   19470
   19426   19425   19427   19428   19426   19425   19427   19429
   19426   19425   19427   19467   19427   19467   19470   19471
   19427   19467   19470   19472   19427   19467   19470   19473
   19428   19427   19467   19468   19428   19427   19467   19469
   19428   19427   19467   19470   19429   19427   19467   19468
   19429   19427   19467   19469   19429   19427   19467   19470
   19430   19433   19436   19437   19430   19433   19436   19438
   19430   19433   19436   19439   19431   19430   19433   19434
   19431   19430   19433   19435   19431   19430   19433   19436
   19432   19430   19433   19434   19432   19430   19433   19435
   19432   19430   19433   19436   19433   19436   19439   19440
   19433   19436   19439   19441   19433   19436   19439   19442
   19434   19433   19436   19437   19434   19433   19436   19438
   19434   19433   19436   19439   19435   19433   19436   19437
   19435   19433   19436   19438   19435   19433   19436   19439
   19436   19439   19442   19443   19436   19439   19442   19444
   19436   19439   19442   19445   19437   19436   19439   19440
   19437   19436   19439   19441   19437   19436   19439   19442
   19438   19436   19439   19440   19438   19436   19439   19441
   19438   19436   19439   19442   19439   19442   19445   19446
   19439   19442   19445   19447   19439   19442   19445   19448
   19440   19439   19442   19443   19440   19439   19442   19444
   19440   19439   19442   19445   19441   19439   19442   19443
   19441   19439   19442   19444   19441   19439   19442   19445
   19442   19445   19448   19449   19442   19445   19448   19450
   19442   19445   19448   19451   19443   19442   19445   19446
   19443   19442   19445   19447   19443   19442   19445   19448
   19444   19442   19445   19446   19444   19442   19445   19447
   19444   19442   19445   19448   19445   19448   19451   19452
   19445   19448   19451   19453   19445   19448   19451   19454
   19446   19445   19448   19449   19446   19445   19448   19450
   19446   19445   19448   19451   19447   19445   19448   19449
   19447   19445   19448   19450   19447   19445   19448   19451
   19448   19451   19454   19455   19448   19451   19454   19456
   19448   19451   19454   19457   19449   19448   19451   19452
   19449   19448   19451   19453   19449   19448   19451   19454
   19450   19448   19451   19452   19450   19448   19451   19453
   19450   19448   19451   19454   19451   19454   19457   19458
   19451   19454   19457   19459   19451   19454   19457   19460
   19452   19451   19454   19455   19452   19451   19454   19456
   19452   19451   19454   19457   19453   19451   19454   19455
   19453   19451   19454   19456   19453   19451   19454   19457
   19454   19457   19460   19461   19454   19457   19460   19462
   19454   19457   19460   19463   19455   19454   19457   19458
   19455   19454   19457   19459   19455   19454   19457   19460
   19456   19454   19457   19458   19456   19454   19457   19459
   19456   19454   19457   19460   19457   19460   19463   19464
   19457   19460   19463   19465   19457   19460   19463   19466
   19458   19457   19460   19461   19458   19457   19460   19462
   19458   19457   19460   19463   19459   19457   19460   19461
   19459   19457   19460   19462   19459   19457   19460   19463
   19461   19460   19463   19464   19461   19460   19463   19465
   19461   19460   19463   19466   19462   19460   19463   19464
   19462   19460   19463   19465   19462   19460   19463   19466
   19467   19470   19473   19474   19467   19470   19473   19475
   19467   19470   19473   19476   19468   19467   19470   19471
   19468   19467   19470   19472   19468   19467   19470   19473
   19469   19467   19470   19471   19469   19467   19470   19472
   19469   19467   19470   19473   19470   19473   19476   19477
   19470   19473   19476   19478   19470   19473   19476   19479
   19471   19470   19473   19474   19471   19470   19473   19475
   19471   19470   19473   19476   19472   19470   19473   19474
   19472   19470   19473   19475   19472   19470   19473   19476
   19473   19476   19479   19480   19473   19476   19479   19481
   19473   19476   19479   19482   19474   19473   19476   19477
   19474   19473   19476   19478   19474   19473   19476   19479
   19475   19473   19476   19477   19475   19473   19476   19478
   19475   19473   19476   19479   19476   19479   19482   19483
   19476   19479   19482   19484   19476   19479   19482   19485
   19477   19476   19479   19480   19477   19476   19479   19481
   19477   19476   19479   19482   19478   19476   19479   19480
   19478   19476   19479   19481   19478   19476   19479   19482
   19479   19482   19485   19486   19479   19482   19485   19487
   19479   19482   19485   19488   19480   19479   19482   19483
   19480   19479   19482   19484   19480   19479   19482   19485
   19481   19479   19482   19483   19481   19479   19482   19484
   19481   19479   19482   19485   19482   19485   19488   19489
   19482   19485   19488   19490   19482   19485   19488   19491
   19483   19482   19485   19486   19483   19482   19485   19487
   19483   19482   19485   19488   19484   19482   19485   19486
   19484   19482   19485   19487   19484   19482   19485   19488
   19485   19488   19491   19492   19485   19488   19491   19493
   19485   19488   19491   19494   19486   19485   19488   19489
   19486   19485   19488   19490   19486   19485   19488   19491
   19487   19485   19488   19489   19487   19485   19488   19490
   19487   19485   19488   19491   19488   19491   19494   19495
   19488   19491   19494   19496   19488   19491   19494   19497
   19489   19488   19491   19492   19489   19488   19491   19493
   19489   19488   19491   19494   19490   19488   19491   19492
   19490   19488   19491   19493   19490   19488   19491   19494
   19491   19494   19497   19498   19491   19494   19497   19499
   19491   19494   19497   19500   19492   19491   19494   19495
   19492   19491   19494   19496   19492   19491   19494   19497
   19493   19491   19494   19495   19493   19491   19494   19496
   19493   19491   19494   19497   19494   19497   19500   19501
   19494   19497   19500   19502   19494   19497   19500   19503
   19495   19494   19497   19498   19495   19494   19497   19499
   19495   19494   19497   19500   19496   19494   19497   19498
   19496   19494   19497   19499   19496   19494   19497   19500
   19498   19497   19500   19501   19498   19497   19500   19502
   19498   19497   19500   19503   19499   19497   19500   19501
   19499   19497   19500   19502   19499   19497   19500   19503
   19504   19517   19520   19521   19504   19517   19520   19522
   19504   19517   19520   19527   19505   19504   19509   19510
   19505   19504   19509   19511   19505   19504   19509   19512
   19505   19504   19513   19514   19505   19504   19513   19515
   19505   19504   19513   19516   19505   19504   19517   19518
   19505   19504   19517   19519   19505   19504   19517   19520
   19509   19504   19505   19506   19509   19504   19505   19507
   19509   19504   19505   19508   19509   19504   19513   19514
   19509   19504   19513   19515   19509   19504   19513   19516
   19509   19504   19517   19518   19509   19504   19517   19519
   19509   19504   19517   19520   19513   19504   19505   19506
   19513   19504   19505   19507   19513   19504   19505   19508
   19513   19504   19509   19510   19513   19504   19509   19511
   19513   19504   19509   19512   19513   19504   19517   19518
   19513   19504   19517   19519   19513   19504   19517   19520
   19517   19504   19505   19506   19517   19504   19505   19507
   19517   19504   19505   19508   19517   19504   19509   19510
   19517   19504   19509   19511   19517   19504   19509   19512
   19517   19504   19513   19514   19517   19504   19513   19515
   19517   19504   19513   19516   19517   19520   19527   19523
   19518   19517   19520   19521   19518   19517   19520   19522
   19518   19517   19520   19527   19519   19517   19520   19521
   19519   19517   19520   19522   19519   19517   19520   19527
   19521   19520   19527   19523   19522   19520   19527   19523
   19523   19526   19528   19529   19523   19526   19528   19530
   19523   19526   19528   19531   19524   19523   19527   19520
   19524   19523   19526   19528   19525   19523   19527   19520
   19525   19523   19526   19528   19526   19523   19527   19520
   19526   19528   19531   19532   19526   19528   19531   19539
   19526   19528   19531   19533   19527   19523   19526   19528
   19528   19531   19539   19540   19528   19531   19539   19541
   19528   19531   19539   19542   19528   19531   19533   19534
   19529   19528   19531   19532   19529   19528   19531   19539
   19529   19528   19531   19533   19530   19528   19531   19532
   19530   19528   19531   19539   19530   19528   19531   19533
   19531   19539   19542   19543   19531   19533   19534   19536
   19531   19533   19534   19535   19532   19531   19539   19540
   19532   19531   19539   19541   19532   19531   19539   19542
   19532   19531   19533   19534   19533   19534   19536   19537
   19533   19534   19536   19538   19533   19534   19536   19548
   19533   19531   19539   19540   19533   19531   19539   19541
   19533   19531   19539   19542   19534   19536   19548   19549
   19534   19536   19548   19550   19534   19536   19548   19551
   19535   19534   19536   19537   19535   19534   19536   19538
   19535   19534   19536   19548   19536   19548   19551   19552
   19536   19548   19551   19553   19536   19548   19551   19554
   19537   19536   19548   19549   19537   19536   19548   19550
   19537   19536   19548   19551   19538   19536   19548   19549
   19538   19536   19548   19550   19538   19536   19548   19551
   19539   19531   19533   19534   19539   19542   19543   19545
   19539   19542   19543   19544   19540   19539   19542   19543
   19541   19539   19542   19543   19542   19543   19545   19546
   19542   19543   19545   19547   19542   19543   19545   19585
   19543   19545   19585   19586   19543   19545   19585   19587
   19543   19545   19585   19588   19544   19543   19545   19546
   19544   19543   19545   19547   19544   19543   19545   19585
   19545   19585   19588   19589   19545   19585   19588   19590
   19545   19585   19588   19591   19546   19545   19585   19586
   19546   19545   19585   19587   19546   19545   19585   19588
   19547   19545   19585   19586   19547   19545   19585   19587
   19547   19545   19585   19588   19548   19551   19554   19555
   19548   19551   19554   19556   19548   19551   19554   19557
   19549   19548   19551   19552   19549   19548   19551   19553
   19549   19548   19551   19554   19550   19548   19551   19552
   19550   19548   19551   19553   19550   19548   19551   19554
   19551   19554   19557   19558   19551   19554   19557   19559
   19551   19554   19557   19560   19552   19551   19554   19555
   19552   19551   19554   19556   19552   19551   19554   19557
   19553   19551   19554   19555   19553   19551   19554   19556
   19553   19551   19554   19557   19554   19557   19560   19561
   19554   19557   19560   19562   19554   19557   19560   19563
   19555   19554   19557   19558   19555   19554   19557   19559
   19555   19554   19557   19560   19556   19554   19557   19558
   19556   19554   19557   19559   19556   19554   19557   19560
   19557   19560   19563   19564   19557   19560   19563   19565
   19557   19560   19563   19566   19558   19557   19560   19561
   19558   19557   19560   19562   19558   19557   19560   19563
   19559   19557   19560   19561   19559   19557   19560   19562
   19559   19557   19560   19563   19560   19563   19566   19567
   19560   19563   19566   19568   19560   19563   19566   19569
   19561   19560   19563   19564   19561   19560   19563   19565
   19561   19560   19563   19566   19562   19560   19563   19564
   19562   19560   19563   19565   19562   19560   19563   19566
   19563   19566   19569   19570   19563   19566   19569   19571
   19563   19566   19569   19572   19564   19563   19566   19567
   19564   19563   19566   19568   19564   19563   19566   19569
   19565   19563   19566   19567   19565   19563   19566   19568
   19565   19563   19566   19569   19566   19569   19572   19573
   19566   19569   19572   19574   19566   19569   19572   19575
   19567   19566   19569   19570   19567   19566   19569   19571
   19567   19566   19569   19572   19568   19566   19569   19570
   19568   19566   19569   19571   19568   19566   19569   19572
   19569   19572   19575   19576   19569   19572   19575   19577
   19569   19572   19575   19578   19570   19569   19572   19573
   19570   19569   19572   19574   19570   19569   19572   19575
   19571   19569   19572   19573   19571   19569   19572   19574
   19571   19569   19572   19575   19572   19575   19578   19579
   19572   19575   19578   19580   19572   19575   19578   19581
   19573   19572   19575   19576   19573   19572   19575   19577
   19573   19572   19575   19578   19574   19572   19575   19576
   19574   19572   19575   19577   19574   19572   19575   19578
   19575   19578   19581   19582   19575   19578   19581   19583
   19575   19578   19581   19584   19576   19575   19578   19579
   19576   19575   19578   19580   19576   19575   19578   19581
   19577   19575   19578   19579   19577   19575   19578   19580
   19577   19575   19578   19581   19579   19578   19581   19582
   19579   19578   19581   19583   19579   19578   19581   19584
   19580   19578   19581   19582   19580   19578   19581   19583
   19580   19578   19581   19584   19585   19588   19591   19592
   19585   19588   19591   19593   19585   19588   19591   19594
   19586   19585   19588   19589   19586   19585   19588   19590
   19586   19585   19588   19591   19587   19585   19588   19589
   19587   19585   19588   19590   19587   19585   19588   19591
   19588   19591   19594   19595   19588   19591   19594   19596
   19588   19591   19594   19597   19589   19588   19591   19592
   19589   19588   19591   19593   19589   19588   19591   19594
   19590   19588   19591   19592   19590   19588   19591   19593
   19590   19588   19591   19594   19591   19594   19597   19598
   19591   19594   19597   19599   19591   19594   19597   19600
   19592   19591   19594   19595   19592   19591   19594   19596
   19592   19591   19594   19597   19593   19591   19594   19595
   19593   19591   19594   19596   19593   19591   19594   19597
   19594   19597   19600   19601   19594   19597   19600   19602
   19594   19597   19600   19603   19595   19594   19597   19598
   19595   19594   19597   19599   19595   19594   19597   19600
   19596   19594   19597   19598   19596   19594   19597   19599
   19596   19594   19597   19600   19597   19600   19603   19604
   19597   19600   19603   19605   19597   19600   19603   19606
   19598   19597   19600   19601   19598   19597   19600   19602
   19598   19597   19600   19603   19599   19597   19600   19601
   19599   19597   19600   19602   19599   19597   19600   19603
   19600   19603   19606   19607   19600   19603   19606   19608
   19600   19603   19606   19609   19601   19600   19603   19604
   19601   19600   19603   19605   19601   19600   19603   19606
   19602   19600   19603   19604   19602   19600   19603   19605
   19602   19600   19603   19606   19603   19606   19609   19610
   19603   19606   19609   19611   19603   19606   19609   19612
   19604   19603   19606   19607   19604   19603   19606   19608
   19604   19603   19606   19609   19605   19603   19606   19607
   19605   19603   19606   19608   19605   19603   19606   19609
   19606   19609   19612   19613   19606   19609   19612   19614
   19606   19609   19612   19615   19607   19606   19609   19610
   19607   19606   19609   19611   19607   19606   19609   19612
   19608   19606   19609   19610   19608   19606   19609   19611
   19608   19606   19609   19612   19609   19612   19615   19616
   19609   19612   19615   19617   19609   19612   19615   19618
   19610   19609   19612   19613   19610   19609   19612   19614
   19610   19609   19612   19615   19611   19609   19612   19613
   19611   19609   19612   19614   19611   19609   19612   19615
   19612   19615   19618   19619   19612   19615   19618   19620
   19612   19615   19618   19621   19613   19612   19615   19616
   19613   19612   19615   19617   19613   19612   19615   19618
   19614   19612   19615   19616   19614   19612   19615   19617
   19614   19612   19615   19618   19616   19615   19618   19619
   19616   19615   19618   19620   19616   19615   19618   19621
   19617   19615   19618   19619   19617   19615   19618   19620
   19617   19615   19618   19621   19622   19635   19638   19639
   19622   19635   19638   19640   19622   19635   19638   19645
   19623   19622   19627   19628   19623   19622   19627   19629
   19623   19622   19627   19630   19623   19622   19631   19632
   19623   19622   19631   19633   19623   19622   19631   19634
   19623   19622   19635   19636   19623   19622   19635   19637
   19623   19622   19635   19638   19627   19622   19623   19624
   19627   19622   19623   19625   19627   19622   19623   19626
   19627   19622   19631   19632   19627   19622   19631   19633
   19627   19622   19631   19634   19627   19622   19635   19636
   19627   19622   19635   19637   19627   19622   19635   19638
   19631   19622   19623   19624   19631   19622   19623   19625
   19631   19622   19623   19626   19631   19622   19627   19628
   19631   19622   19627   19629   19631   19622   19627   19630
   19631   19622   19635   19636   19631   19622   19635   19637
   19631   19622   19635   19638   19635   19622   19623   19624
   19635   19622   19623   19625   19635   19622   19623   19626
   19635   19622   19627   19628   19635   19622   19627   19629
   19635   19622   19627   19630   19635   19622   19631   19632
   19635   19622   19631   19633   19635   19622   19631   19634
   19635   19638   19645   19641   19636   19635   19638   19639
   19636   19635   19638   19640   19636   19635   19638   19645
   19637   19635   19638   19639   19637   19635   19638   19640
   19637   19635   19638   19645   19639   19638   19645   19641
   19640   19638   19645   19641   19641   19644   19646   19647
   19641   19644   19646   19648   19641   19644   19646   19649
   19642   19641   19645   19638   19642   19641   19644   19646
   19643   19641   19645   19638   19643   19641   19644   19646
   19644   19641   19645   19638   19644   19646   19649   19650
   19644   19646   19649   19657   19644   19646   19649   19651
   19645   19641   19644   19646   19646   19649   19657   19658
   19646   19649   19657   19659   19646   19649   19657   19660
   19646   19649   19651   19652   19647   19646   19649   19650
   19647   19646   19649   19657   19647   19646   19649   19651
   19648   19646   19649   19650   19648   19646   19649   19657
   19648   19646   19649   19651   19649   19657   19660   19661
   19649   19651   19652   19654   19649   19651   19652   19653
   19650   19649   19657   19658   19650   19649   19657   19659
   19650   19649   19657   19660   19650   19649   19651   19652
   19651   19652   19654   19655   19651   19652   19654   19656
   19651   19652   19654   19666   19651   19649   19657   19658
   19651   19649   19657   19659   19651   19649   19657   19660
   19652   19654   19666   19667   19652   19654   19666   19668
   19652   19654   19666   19669   19653   19652   19654   19655
   19653   19652   19654   19656   19653   19652   19654   19666
   19654   19666   19669   19670   19654   19666   19669   19671
   19654   19666   19669   19672   19655   19654   19666   19667
   19655   19654   19666   19668   19655   19654   19666   19669
   19656   19654   19666   19667   19656   19654   19666   19668
   19656   19654   19666   19669   19657   19649   19651   19652
   19657   19660   19661   19663   19657   19660   19661   19662
   19658   19657   19660   19661   19659   19657   19660   19661
   19660   19661   19663   19664   19660   19661   19663   19665
   19660   19661   19663   19703   19661   19663   19703   19704
   19661   19663   19703   19705   19661   19663   19703   19706
   19662   19661   19663   19664   19662   19661   19663   19665
   19662   19661   19663   19703   19663   19703   19706   19707
   19663   19703   19706   19708   19663   19703   19706   19709
   19664   19663   19703   19704   19664   19663   19703   19705
   19664   19663   19703   19706   19665   19663   19703   19704
   19665   19663   19703   19705   19665   19663   19703   19706
   19666   19669   19672   19673   19666   19669   19672   19674
   19666   19669   19672   19675   19667   19666   19669   19670
   19667   19666   19669   19671   19667   19666   19669   19672
   19668   19666   19669   19670   19668   19666   19669   19671
   19668   19666   19669   19672   19669   19672   19675   19676
   19669   19672   19675   19677   19669   19672   19675   19678
   19670   19669   19672   19673   19670   19669   19672   19674
   19670   19669   19672   19675   19671   19669   19672   19673
   19671   19669   19672   19674   19671   19669   19672   19675
   19672   19675   19678   19679   19672   19675   19678   19680
   19672   19675   19678   19681   19673   19672   19675   19676
   19673   19672   19675   19677   19673   19672   19675   19678
   19674   19672   19675   19676   19674   19672   19675   19677
   19674   19672   19675   19678   19675   19678   19681   19682
   19675   19678   19681   19683   19675   19678   19681   19684
   19676   19675   19678   19679   19676   19675   19678   19680
   19676   19675   19678   19681   19677   19675   19678   19679
   19677   19675   19678   19680   19677   19675   19678   19681
   19678   19681   19684   19685   19678   19681   19684   19686
   19678   19681   19684   19687   19679   19678   19681   19682
   19679   19678   19681   19683   19679   19678   19681   19684
   19680   19678   19681   19682   19680   19678   19681   19683
   19680   19678   19681   19684   19681   19684   19687   19688
   19681   19684   19687   19689   19681   19684   19687   19690
   19682   19681   19684   19685   19682   19681   19684   19686
   19682   19681   19684   19687   19683   19681   19684   19685
   19683   19681   19684   19686   19683   19681   19684   19687
   19684   19687   19690   19691   19684   19687   19690   19692
   19684   19687   19690   19693   19685   19684   19687   19688
   19685   19684   19687   19689   19685   19684   19687   19690
   19686   19684   19687   19688   19686   19684   19687   19689
   19686   19684   19687   19690   19687   19690   19693   19694
   19687   19690   19693   19695   19687   19690   19693   19696
   19688   19687   19690   19691   19688   19687   19690   19692
   19688   19687   19690   19693   19689   19687   19690   19691
   19689   19687   19690   19692   19689   19687   19690   19693
   19690   19693   19696   19697   19690   19693   19696   19698
   19690   19693   19696   19699   19691   19690   19693   19694
   19691   19690   19693   19695   19691   19690   19693   19696
   19692   19690   19693   19694   19692   19690   19693   19695
   19692   19690   19693   19696   19693   19696   19699   19700
   19693   19696   19699   19701   19693   19696   19699   19702
   19694   19693   19696   19697   19694   19693   19696   19698
   19694   19693   19696   19699   19695   19693   19696   19697
   19695   19693   19696   19698   19695   19693   19696   19699
   19697   19696   19699   19700   19697   19696   19699   19701
   19697   19696   19699   19702   19698   19696   19699   19700
   19698   19696   19699   19701   19698   19696   19699   19702
   19703   19706   19709   19710   19703   19706   19709   19711
   19703   19706   19709   19712   19704   19703   19706   19707
   19704   19703   19706   19708   19704   19703   19706   19709
   19705   19703   19706   19707   19705   19703   19706   19708
   19705   19703   19706   19709   19706   19709   19712   19713
   19706   19709   19712   19714   19706   19709   19712   19715
   19707   19706   19709   19710   19707   19706   19709   19711
   19707   19706   19709   19712   19708   19706   19709   19710
   19708   19706   19709   19711   19708   19706   19709   19712
   19709   19712   19715   19716   19709   19712   19715   19717
   19709   19712   19715   19718   19710   19709   19712   19713
   19710   19709   19712   19714   19710   19709   19712   19715
   19711   19709   19712   19713   19711   19709   19712   19714
   19711   19709   19712   19715   19712   19715   19718   19719
   19712   19715   19718   19720   19712   19715   19718   19721
   19713   19712   19715   19716   19713   19712   19715   19717
   19713   19712   19715   19718   19714   19712   19715   19716
   19714   19712   19715   19717   19714   19712   19715   19718
   19715   19718   19721   19722   19715   19718   19721   19723
   19715   19718   19721   19724   19716   19715   19718   19719
   19716   19715   19718   19720   19716   19715   19718   19721
   19717   19715   19718   19719   19717   19715   19718   19720
   19717   19715   19718   19721   19718   19721   19724   19725
   19718   19721   19724   19726   19718   19721   19724   19727
   19719   19718   19721   19722   19719   19718   19721   19723
   19719   19718   19721   19724   19720   19718   19721   19722
   19720   19718   19721   19723   19720   19718   19721   19724
   19721   19724   19727   19728   19721   19724   19727   19729
   19721   19724   19727   19730   19722   19721   19724   19725
   19722   19721   19724   19726   19722   19721   19724   19727
   19723   19721   19724   19725   19723   19721   19724   19726
   19723   19721   19724   19727   19724   19727   19730   19731
   19724   19727   19730   19732   19724   19727   19730   19733
   19725   19724   19727   19728   19725   19724   19727   19729
   19725   19724   19727   19730   19726   19724   19727   19728
   19726   19724   19727   19729   19726   19724   19727   19730
   19727   19730   19733   19734   19727   19730   19733   19735
   19727   19730   19733   19736   19728   19727   19730   19731
   19728   19727   19730   19732   19728   19727   19730   19733
   19729   19727   19730   19731   19729   19727   19730   19732
   19729   19727   19730   19733   19730   19733   19736   19737
   19730   19733   19736   19738   19730   19733   19736   19739
   19731   19730   19733   19734   19731   19730   19733   19735
   19731   19730   19733   19736   19732   19730   19733   19734
   19732   19730   19733   19735   19732   19730   19733   19736
   19734   19733   19736   19737   19734   19733   19736   19738
   19734   19733   19736   19739   19735   19733   19736   19737
   19735   19733   19736   19738   19735   19733   19736   19739
   19740   19753   19756   19757   19740   19753   19756   19758
   19740   19753   19756   19763   19741   19740   19745   19746
   19741   19740   19745   19747   19741   19740   19745   19748
   19741   19740   19749   19750   19741   19740   19749   19751
   19741   19740   19749   19752   19741   19740   19753   19754
   19741   19740   19753   19755   19741   19740   19753   19756
   19745   19740   19741   19742   19745   19740   19741   19743
   19745   19740   19741   19744   19745   19740   19749   19750
   19745   19740   19749   19751   19745   19740   19749   19752
   19745   19740   19753   19754   19745   19740   19753   19755
   19745   19740   19753   19756   19749   19740   19741   19742
   19749   19740   19741   19743   19749   19740   19741   19744
   19749   19740   19745   19746   19749   19740   19745   19747
   19749   19740   19745   19748   19749   19740   19753   19754
   19749   19740   19753   19755   19749   19740   19753   19756
   19753   19740   19741   19742   19753   19740   19741   19743
   19753   19740   19741   19744   19753   19740   19745   19746
   19753   19740   19745   19747   19753   19740   19745   19748
   19753   19740   19749   19750   19753   19740   19749   19751
   19753   19740   19749   19752   19753   19756   19763   19759
   19754   19753   19756   19757   19754   19753   19756   19758
   19754   19753   19756   19763   19755   19753   19756   19757
   19755   19753   19756   19758   19755   19753   19756   19763
   19757   19756   19763   19759   19758   19756   19763   19759
   19759   19762   19764   19765   19759   19762   19764   19766
   19759   19762   19764   19767   19760   19759   19763   19756
   19760   19759   19762   19764   19761   19759   19763   19756
   19761   19759   19762   19764   19762   19759   19763   19756
   19762   19764   19767   19768   19762   19764   19767   19775
   19762   19764   19767   19769   19763   19759   19762   19764
   19764   19767   19775   19776   19764   19767   19775   19777
   19764   19767   19775   19778   19764   19767   19769   19770
   19765   19764   19767   19768   19765   19764   19767   19775
   19765   19764   19767   19769   19766   19764   19767   19768
   19766   19764   19767   19775   19766   19764   19767   19769
   19767   19775   19778   19779   19767   19769   19770   19772
   19767   19769   19770   19771   19768   19767   19775   19776
   19768   19767   19775   19777   19768   19767   19775   19778
   19768   19767   19769   19770   19769   19770   19772   19773
   19769   19770   19772   19774   19769   19770   19772   19784
   19769   19767   19775   19776   19769   19767   19775   19777
   19769   19767   19775   19778   19770   19772   19784   19785
   19770   19772   19784   19786   19770   19772   19784   19787
   19771   19770   19772   19773   19771   19770   19772   19774
   19771   19770   19772   19784   19772   19784   19787   19788
   19772   19784   19787   19789   19772   19784   19787   19790
   19773   19772   19784   19785   19773   19772   19784   19786
   19773   19772   19784   19787   19774   19772   19784   19785
   19774   19772   19784   19786   19774   19772   19784   19787
   19775   19767   19769   19770   19775   19778   19779   19781
   19775   19778   19779   19780   19776   19775   19778   19779
   19777   19775   19778   19779   19778   19779   19781   19782
   19778   19779   19781   19783   19778   19779   19781   19821
   19779   19781   19821   19822   19779   19781   19821   19823
   19779   19781   19821   19824   19780   19779   19781   19782
   19780   19779   19781   19783   19780   19779   19781   19821
   19781   19821   19824   19825   19781   19821   19824   19826
   19781   19821   19824   19827   19782   19781   19821   19822
   19782   19781   19821   19823   19782   19781   19821   19824
   19783   19781   19821   19822   19783   19781   19821   19823
   19783   19781   19821   19824   19784   19787   19790   19791
   19784   19787   19790   19792   19784   19787   19790   19793
   19785   19784   19787   19788   19785   19784   19787   19789
   19785   19784   19787   19790   19786   19784   19787   19788
   19786   19784   19787   19789   19786   19784   19787   19790
   19787   19790   19793   19794   19787   19790   19793   19795
   19787   19790   19793   19796   19788   19787   19790   19791
   19788   19787   19790   19792   19788   19787   19790   19793
   19789   19787   19790   19791   19789   19787   19790   19792
   19789   19787   19790   19793   19790   19793   19796   19797
   19790   19793   19796   19798   19790   19793   19796   19799
   19791   19790   19793   19794   19791   19790   19793   19795
   19791   19790   19793   19796   19792   19790   19793   19794
   19792   19790   19793   19795   19792   19790   19793   19796
   19793   19796   19799   19800   19793   19796   19799   19801
   19793   19796   19799   19802   19794   19793   19796   19797
   19794   19793   19796   19798   19794   19793   19796   19799
   19795   19793   19796   19797   19795   19793   19796   19798
   19795   19793   19796   19799   19796   19799   19802   19803
   19796   19799   19802   19804   19796   19799   19802   19805
   19797   19796   19799   19800   19797   19796   19799   19801
   19797   19796   19799   19802   19798   19796   19799   19800
   19798   19796   19799   19801   19798   19796   19799   19802
   19799   19802   19805   19806   19799   19802   19805   19807
   19799   19802   19805   19808   19800   19799   19802   19803
   19800   19799   19802   19804   19800   19799   19802   19805
   19801   19799   19802   19803   19801   19799   19802   19804
   19801   19799   19802   19805   19802   19805   19808   19809
   19802   19805   19808   19810   19802   19805   19808   19811
   19803   19802   19805   19806   19803   19802   19805   19807
   19803   19802   19805   19808   19804   19802   19805   19806
   19804   19802   19805   19807   19804   19802   19805   19808
   19805   19808   19811   19812   19805   19808   19811   19813
   19805   19808   19811   19814   19806   19805   19808   19809
   19806   19805   19808   19810   19806   19805   19808   19811
   19807   19805   19808   19809   19807   19805   19808   19810
   19807   19805   19808   19811   19808   19811   19814   19815
   19808   19811   19814   19816   19808   19811   19814   19817
   19809   19808   19811   19812   19809   19808   19811   19813
   19809   19808   19811   19814   19810   19808   19811   19812
   19810   19808   19811   19813   19810   19808   19811   19814
   19811   19814   19817   19818   19811   19814   19817   19819
   19811   19814   19817   19820   19812   19811   19814   19815
   19812   19811   19814   19816   19812   19811   19814   19817
   19813   19811   19814   19815   19813   19811   19814   19816
   19813   19811   19814   19817   19815   19814   19817   19818
   19815   19814   19817   19819   19815   19814   19817   19820
   19816   19814   19817   19818   19816   19814   19817   19819
   19816   19814   19817   19820   19821   19824   19827   19828
   19821   19824   19827   19829   19821   19824   19827   19830
   19822   19821   19824   19825   19822   19821   19824   19826
   19822   19821   19824   19827   19823   19821   19824   19825
   19823   19821   19824   19826   19823   19821   19824   19827
   19824   19827   19830   19831   19824   19827   19830   19832
   19824   19827   19830   19833   19825   19824   19827   19828
   19825   19824   19827   19829   19825   19824   19827   19830
   19826   19824   19827   19828   19826   19824   19827   19829
   19826   19824   19827   19830   19827   19830   19833   19834
   19827   19830   19833   19835   19827   19830   19833   19836
   19828   19827   19830   19831   19828   19827   19830   19832
   19828   19827   19830   19833   19829   19827   19830   19831
   19829   19827   19830   19832   19829   19827   19830   19833
   19830   19833   19836   19837   19830   19833   19836   19838
   19830   19833   19836   19839   19831   19830   19833   19834
   19831   19830   19833   19835   19831   19830   19833   19836
   19832   19830   19833   19834   19832   19830   19833   19835
   19832   19830   19833   19836   19833   19836   19839   19840
   19833   19836   19839   19841   19833   19836   19839   19842
   19834   19833   19836   19837   19834   19833   19836   19838
   19834   19833   19836   19839   19835   19833   19836   19837
   19835   19833   19836   19838   19835   19833   19836   19839
   19836   19839   19842   19843   19836   19839   19842   19844
   19836   19839   19842   19845   19837   19836   19839   19840
   19837   19836   19839   19841   19837   19836   19839   19842
   19838   19836   19839   19840   19838   19836   19839   19841
   19838   19836   19839   19842   19839   19842   19845   19846
   19839   19842   19845   19847   19839   19842   19845   19848
   19840   19839   19842   19843   19840   19839   19842   19844
   19840   19839   19842   19845   19841   19839   19842   19843
   19841   19839   19842   19844   19841   19839   19842   19845
   19842   19845   19848   19849   19842   19845   19848   19850
   19842   19845   19848   19851   19843   19842   19845   19846
   19843   19842   19845   19847   19843   19842   19845   19848
   19844   19842   19845   19846   19844   19842   19845   19847
   19844   19842   19845   19848   19845   19848   19851   19852
   19845   19848   19851   19853   19845   19848   19851   19854
   19846   19845   19848   19849   19846   19845   19848   19850
   19846   19845   19848   19851   19847   19845   19848   19849
   19847   19845   19848   19850   19847   19845   19848   19851
   19848   19851   19854   19855   19848   19851   19854   19856
   19848   19851   19854   19857   19849   19848   19851   19852
   19849   19848   19851   19853   19849   19848   19851   19854
   19850   19848   19851   19852   19850   19848   19851   19853
   19850   19848   19851   19854   19852   19851   19854   19855
   19852   19851   19854   19856   19852   19851   19854   19857
   19853   19851   19854   19855   19853   19851   19854   19856
   19853   19851   19854   19857   19858   19871   19874   19875
   19858   19871   19874   19876   19858   19871   19874   19881
   19859   19858   19863   19864   19859   19858   19863   19865
   19859   19858   19863   19866   19859   19858   19867   19868
   19859   19858   19867   19869   19859   19858   19867   19870
   19859   19858   19871   19872   19859   19858   19871   19873
   19859   19858   19871   19874   19863   19858   19859   19860
   19863   19858   19859   19861   19863   19858   19859   19862
   19863   19858   19867   19868   19863   19858   19867   19869
   19863   19858   19867   19870   19863   19858   19871   19872
   19863   19858   19871   19873   19863   19858   19871   19874
   19867   19858   19859   19860   19867   19858   19859   19861
   19867   19858   19859   19862   19867   19858   19863   19864
   19867   19858   19863   19865   19867   19858   19863   19866
   19867   19858   19871   19872   19867   19858   19871   19873
   19867   19858   19871   19874   19871   19858   19859   19860
   19871   19858   19859   19861   19871   19858   19859   19862
   19871   19858   19863   19864   19871   19858   19863   19865
   19871   19858   19863   19866   19871   19858   19867   19868
   19871   19858   19867   19869   19871   19858   19867   19870
   19871   19874   19881   19877   19872   19871   19874   19875
   19872   19871   19874   19876   19872   19871   19874   19881
   19873   19871   19874   19875   19873   19871   19874   19876
   19873   19871   19874   19881   19875   19874   19881   19877
   19876   19874   19881   19877   19877   19880   19882   19883
   19877   19880   19882   19884   19877   19880   19882   19885
   19878   19877   19881   19874   19878   19877   19880   19882
   19879   19877   19881   19874   19879   19877   19880   19882
   19880   19877   19881   19874   19880   19882   19885   19886
   19880   19882   19885   19893   19880   19882   19885   19887
   19881   19877   19880   19882   19882   19885   19893   19894
   19882   19885   19893   19895   19882   19885   19893   19896
   19882   19885   19887   19888   19883   19882   19885   19886
   19883   19882   19885   19893   19883   19882   19885   19887
   19884   19882   19885   19886   19884   19882   19885   19893
   19884   19882   19885   19887   19885   19893   19896   19897
   19885   19887   19888   19890   19885   19887   19888   19889
   19886   19885   19893   19894   19886   19885   19893   19895
   19886   19885   19893   19896   19886   19885   19887   19888
   19887   19888   19890   19891   19887   19888   19890   19892
   19887   19888   19890   19902   19887   19885   19893   19894
   19887   19885   19893   19895   19887   19885   19893   19896
   19888   19890   19902   19903   19888   19890   19902   19904
   19888   19890   19902   19905   19889   19888   19890   19891
   19889   19888   19890   19892   19889   19888   19890   19902
   19890   19902   19905   19906   19890   19902   19905   19907
   19890   19902   19905   19908   19891   19890   19902   19903
   19891   19890   19902   19904   19891   19890   19902   19905
   19892   19890   19902   19903   19892   19890   19902   19904
   19892   19890   19902   19905   19893   19885   19887   19888
   19893   19896   19897   19899   19893   19896   19897   19898
   19894   19893   19896   19897   19895   19893   19896   19897
   19896   19897   19899   19900   19896   19897   19899   19901
   19896   19897   19899   19939   19897   19899   19939   19940
   19897   19899   19939   19941   19897   19899   19939   19942
   19898   19897   19899   19900   19898   19897   19899   19901
   19898   19897   19899   19939   19899   19939   19942   19943
   19899   19939   19942   19944   19899   19939   19942   19945
   19900   19899   19939   19940   19900   19899   19939   19941
   19900   19899   19939   19942   19901   19899   19939   19940
   19901   19899   19939   19941   19901   19899   19939   19942
   19902   19905   19908   19909   19902   19905   19908   19910
   19902   19905   19908   19911   19903   19902   19905   19906
   19903   19902   19905   19907   19903   19902   19905   19908
   19904   19902   19905   19906   19904   19902   19905   19907
   19904   19902   19905   19908   19905   19908   19911   19912
   19905   19908   19911   19913   19905   19908   19911   19914
   19906   19905   19908   19909   19906   19905   19908   19910
   19906   19905   19908   19911   19907   19905   19908   19909
   19907   19905   19908   19910   19907   19905   19908   19911
   19908   19911   19914   19915   19908   19911   19914   19916
   19908   19911   19914   19917   19909   19908   19911   19912
   19909   19908   19911   19913   19909   19908   19911   19914
   19910   19908   19911   19912   19910   19908   19911   19913
   19910   19908   19911   19914   19911   19914   19917   19918
   19911   19914   19917   19919   19911   19914   19917   19920
   19912   19911   19914   19915   19912   19911   19914   19916
   19912   19911   19914   19917   19913   19911   19914   19915
   19913   19911   19914   19916   19913   19911   19914   19917
   19914   19917   19920   19921   19914   19917   19920   19922
   19914   19917   19920   19923   19915   19914   19917   19918
   19915   19914   19917   19919   19915   19914   19917   19920
   19916   19914   19917   19918   19916   19914   19917   19919
   19916   19914   19917   19920   19917   19920   19923   19924
   19917   19920   19923   19925   19917   19920   19923   19926
   19918   19917   19920   19921   19918   19917   19920   19922
   19918   19917   19920   19923   19919   19917   19920   19921
   19919   19917   19920   19922   19919   19917   19920   19923
   19920   19923   19926   19927   19920   19923   19926   19928
   19920   19923   19926   19929   19921   19920   19923   19924
   19921   19920   19923   19925   19921   19920   19923   19926
   19922   19920   19923   19924   19922   19920   19923   19925
   19922   19920   19923   19926   19923   19926   19929   19930
   19923   19926   19929   19931   19923   19926   19929   19932
   19924   19923   19926   19927   19924   19923   19926   19928
   19924   19923   19926   19929   19925   19923   19926   19927
   19925   19923   19926   19928   19925   19923   19926   19929
   19926   19929   19932   19933   19926   19929   19932   19934
   19926   19929   19932   19935   19927   19926   19929   19930
   19927   19926   19929   19931   19927   19926   19929   19932
   19928   19926   19929   19930   19928   19926   19929   19931
   19928   19926   19929   19932   19929   19932   19935   19936
   19929   19932   19935   19937   19929   19932   19935   19938
   19930   19929   19932   19933   19930   19929   19932   19934
   19930   19929   19932   19935   19931   19929   19932   19933
   19931   19929   19932   19934   19931   19929   19932   19935
   19933   19932   19935   19936   19933   19932   19935   19937
   19933   19932   19935   19938   19934   19932   19935   19936
   19934   19932   19935   19937   19934   19932   19935   19938
   19939   19942   19945   19946   19939   19942   19945   19947
   19939   19942   19945   19948   19940   19939   19942   19943
   19940   19939   19942   19944   19940   19939   19942   19945
   19941   19939   19942   19943   19941   19939   19942   19944
   19941   19939   19942   19945   19942   19945   19948   19949
   19942   19945   19948   19950   19942   19945   19948   19951
   19943   19942   19945   19946   19943   19942   19945   19947
   19943   19942   19945   19948   19944   19942   19945   19946
   19944   19942   19945   19947   19944   19942   19945   19948
   19945   19948   19951   19952   19945   19948   19951   19953
   19945   19948   19951   19954   19946   19945   19948   19949
   19946   19945   19948   19950   19946   19945   19948   19951
   19947   19945   19948   19949   19947   19945   19948   19950
   19947   19945   19948   19951   19948   19951   19954   19955
   19948   19951   19954   19956   19948   19951   19954   19957
   19949   19948   19951   19952   19949   19948   19951   19953
   19949   19948   19951   19954   19950   19948   19951   19952
   19950   19948   19951   19953   19950   19948   19951   19954
   19951   19954   19957   19958   19951   19954   19957   19959
   19951   19954   19957   19960   19952   19951   19954   19955
   19952   19951   19954   19956   19952   19951   19954   19957
   19953   19951   19954   19955   19953   19951   19954   19956
   19953   19951   19954   19957   19954   19957   19960   19961
   19954   19957   19960   19962   19954   19957   19960   19963
   19955   19954   19957   19958   19955   19954   19957   19959
   19955   19954   19957   19960   19956   19954   19957   19958
   19956   19954   19957   19959   19956   19954   19957   19960
   19957   19960   19963   19964   19957   19960   19963   19965
   19957   19960   19963   19966   19958   19957   19960   19961
   19958   19957   19960   19962   19958   19957   19960   19963
   19959   19957   19960   19961   19959   19957   19960   19962
   19959   19957   19960   19963   19960   19963   19966   19967
   19960   19963   19966   19968   19960   19963   19966   19969
   19961   19960   19963   19964   19961   19960   19963   19965
   19961   19960   19963   19966   19962   19960   19963   19964
   19962   19960   19963   19965   19962   19960   19963   19966
   19963   19966   19969   19970   19963   19966   19969   19971
   19963   19966   19969   19972   19964   19963   19966   19967
   19964   19963   19966   19968   19964   19963   19966   19969
   19965   19963   19966   19967   19965   19963   19966   19968
   19965   19963   19966   19969   19966   19969   19972   19973
   19966   19969   19972   19974   19966   19969   19972   19975
   19967   19966   19969   19970   19967   19966   19969   19971
   19967   19966   19969   19972   19968   19966   19969   19970
   19968   19966   19969   19971   19968   19966   19969   19972
   19970   19969   19972   19973   19970   19969   19972   19974
   19970   19969   19972   19975   19971   19969   19972   19973
   19971   19969   19972   19974   19971   19969   19972   19975
   19976   19989   19992   19993   19976   19989   19992   19994
   19976   19989   19992   19999   19977   19976   19981   19982
   19977   19976   19981   19983   19977   19976   19981   19984
   19977   19976   19985   19986   19977   19976   19985   19987
   19977   19976   19985   19988   19977   19976   19989   19990
   19977   19976   19989   19991   19977   19976   19989   19992
   19981   19976   19977   19978   19981   19976   19977   19979
   19981   19976   19977   19980   19981   19976   19985   19986
   19981   19976   19985   19987   19981   19976   19985   19988
   19981   19976   19989   19990   19981   19976   19989   19991
   19981   19976   19989   19992   19985   19976   19977   19978
   19985   19976   19977   19979   19985   19976   19977   19980
   19985   19976   19981   19982   19985   19976   19981   19983
   19985   19976   19981   19984   19985   19976   19989   19990
   19985   19976   19989   19991   19985   19976   19989   19992
   19989   19976   19977   19978   19989   19976   19977   19979
   19989   19976   19977   19980   19989   19976   19981   19982
   19989   19976   19981   19983   19989   19976   19981   19984
   19989   19976   19985   19986   19989   19976   19985   19987
   19989   19976   19985   19988   19989   19992   19999   19995
   19990   19989   19992   19993   19990   19989   19992   19994
   19990   19989   19992   19999   19991   19989   19992   19993
   19991   19989   19992   19994   19991   19989   19992   19999
   19993   19992   19999   19995   19994   19992   19999   19995
   19995   19998   20000   20001   19995   19998   20000   20002
   19995   19998   20000   20003   19996   19995   19999   19992
   19996   19995   19998   20000   19997   19995   19999   19992
   19997   19995   19998   20000   19998   19995   19999   19992
   19998   20000   20003   20004   19998   20000   20003   20011
   19998   20000   20003   20005   19999   19995   19998   20000
   20000   20003   20011   20012   20000   20003   20011   20013
   20000   20003   20011   20014   20000   20003   20005   20006
   20001   20000   20003   20004   20001   20000   20003   20011
   20001   20000   20003   20005   20002   20000   20003   20004
   20002   20000   20003   20011   20002   20000   20003   20005
   20003   20011   20014   20015   20003   20005   20006   20008
   20003   20005   20006   20007   20004   20003   20011   20012
   20004   20003   20011   20013   20004   20003   20011   20014
   20004   20003   20005   20006   20005   20006   20008   20009
   20005   20006   20008   20010   20005   20006   20008   20020
   20005   20003   20011   20012   20005   20003   20011   20013
   20005   20003   20011   20014   20006   20008   20020   20021
   20006   20008   20020   20022   20006   20008   20020   20023
   20007   20006   20008   20009   20007   20006   20008   20010
   20007   20006   20008   20020   20008   20020   20023   20024
   20008   20020   20023   20025   20008   20020   20023   20026
   20009   20008   20020   20021   20009   20008   20020   20022
   20009   20008   20020   20023   20010   20008   20020   20021
   20010   20008   20020   20022   20010   20008   20020   20023
   20011   20003   20005   20006   20011   20014   20015   20017
   20011   20014   20015   20016   20012   20011   20014   20015
   20013   20011   20014   20015   20014   20015   20017   20018
   20014   20015   20017   20019   20014   20015   20017   20057
   20015   20017   20057   20058   20015   20017   20057   20059
   20015   20017   20057   20060   20016   20015   20017   20018
   20016   20015   20017   20019   20016   20015   20017   20057
   20017   20057   20060   20061   20017   20057   20060   20062
   20017   20057   20060   20063   20018   20017   20057   20058
   20018   20017   20057   20059   20018   20017   20057   20060
   20019   20017   20057   20058   20019   20017   20057   20059
   20019   20017   20057   20060   20020   20023   20026   20027
   20020   20023   20026   20028   20020   20023   20026   20029
   20021   20020   20023   20024   20021   20020   20023   20025
   20021   20020   20023   20026   20022   20020   20023   20024
   20022   20020   20023   20025   20022   20020   20023   20026
   20023   20026   20029   20030   20023   20026   20029   20031
   20023   20026   20029   20032   20024   20023   20026   20027
   20024   20023   20026   20028   20024   20023   20026   20029
   20025   20023   20026   20027   20025   20023   20026   20028
   20025   20023   20026   20029   20026   20029   20032   20033
   20026   20029   20032   20034   20026   20029   20032   20035
   20027   20026   20029   20030   20027   20026   20029   20031
   20027   20026   20029   20032   20028   20026   20029   20030
   20028   20026   20029   20031   20028   20026   20029   20032
   20029   20032   20035   20036   20029   20032   20035   20037
   20029   20032   20035   20038   20030   20029   20032   20033
   20030   20029   20032   20034   20030   20029   20032   20035
   20031   20029   20032   20033   20031   20029   20032   20034
   20031   20029   20032   20035   20032   20035   20038   20039
   20032   20035   20038   20040   20032   20035   20038   20041
   20033   20032   20035   20036   20033   20032   20035   20037
   20033   20032   20035   20038   20034   20032   20035   20036
   20034   20032   20035   20037   20034   20032   20035   20038
   20035   20038   20041   20042   20035   20038   20041   20043
   20035   20038   20041   20044   20036   20035   20038   20039
   20036   20035   20038   20040   20036   20035   20038   20041
   20037   20035   20038   20039   20037   20035   20038   20040
   20037   20035   20038   20041   20038   20041   20044   20045
   20038   20041   20044   20046   20038   20041   20044   20047
   20039   20038   20041   20042   20039   20038   20041   20043
   20039   20038   20041   20044   20040   20038   20041   20042
   20040   20038   20041   20043   20040   20038   20041   20044
   20041   20044   20047   20048   20041   20044   20047   20049
   20041   20044   20047   20050   20042   20041   20044   20045
   20042   20041   20044   20046   20042   20041   20044   20047
   20043   20041   20044   20045   20043   20041   20044   20046
   20043   20041   20044   20047   20044   20047   20050   20051
   20044   20047   20050   20052   20044   20047   20050   20053
   20045   20044   20047   20048   20045   20044   20047   20049
   20045   20044   20047   20050   20046   20044   20047   20048
   20046   20044   20047   20049   20046   20044   20047   20050
   20047   20050   20053   20054   20047   20050   20053   20055
   20047   20050   20053   20056   20048   20047   20050   20051
   20048   20047   20050   20052   20048   20047   20050   20053
   20049   20047   20050   20051   20049   20047   20050   20052
   20049   20047   20050   20053   20051   20050   20053   20054
   20051   20050   20053   20055   20051   20050   20053   20056
   20052   20050   20053   20054   20052   20050   20053   20055
   20052   20050   20053   20056   20057   20060   20063   20064
   20057   20060   20063   20065   20057   20060   20063   20066
   20058   20057   20060   20061   20058   20057   20060   20062
   20058   20057   20060   20063   20059   20057   20060   20061
   20059   20057   20060   20062   20059   20057   20060   20063
   20060   20063   20066   20067   20060   20063   20066   20068
   20060   20063   20066   20069   20061   20060   20063   20064
   20061   20060   20063   20065   20061   20060   20063   20066
   20062   20060   20063   20064   20062   20060   20063   20065
   20062   20060   20063   20066   20063   20066   20069   20070
   20063   20066   20069   20071   20063   20066   20069   20072
   20064   20063   20066   20067   20064   20063   20066   20068
   20064   20063   20066   20069   20065   20063   20066   20067
   20065   20063   20066   20068   20065   20063   20066   20069
   20066   20069   20072   20073   20066   20069   20072   20074
   20066   20069   20072   20075   20067   20066   20069   20070
   20067   20066   20069   20071   20067   20066   20069   20072
   20068   20066   20069   20070   20068   20066   20069   20071
   20068   20066   20069   20072   20069   20072   20075   20076
   20069   20072   20075   20077   20069   20072   20075   20078
   20070   20069   20072   20073   20070   20069   20072   20074
   20070   20069   20072   20075   20071   20069   20072   20073
   20071   20069   20072   20074   20071   20069   20072   20075
   20072   20075   20078   20079   20072   20075   20078   20080
   20072   20075   20078   20081   20073   20072   20075   20076
   20073   20072   20075   20077   20073   20072   20075   20078
   20074   20072   20075   20076   20074   20072   20075   20077
   20074   20072   20075   20078   20075   20078   20081   20082
   20075   20078   20081   20083   20075   20078   20081   20084
   20076   20075   20078   20079   20076   20075   20078   20080
   20076   20075   20078   20081   20077   20075   20078   20079
   20077   20075   20078   20080   20077   20075   20078   20081
   20078   20081   20084   20085   20078   20081   20084   20086
   20078   20081   20084   20087   20079   20078   20081   20082
   20079   20078   20081   20083   20079   20078   20081   20084
   20080   20078   20081   20082   20080   20078   20081   20083
   20080   20078   20081   20084   20081   20084   20087   20088
   20081   20084   20087   20089   20081   20084   20087   20090
   20082   20081   20084   20085   20082   20081   20084   20086
   20082   20081   20084   20087   20083   20081   20084   20085
   20083   20081   20084   20086   20083   20081   20084   20087
   20084   20087   20090   20091   20084   20087   20090   20092
   20084   20087   20090   20093   20085   20084   20087   20088
   20085   20084   20087   20089   20085   20084   20087   20090
   20086   20084   20087   20088   20086   20084   20087   20089
   20086   20084   20087   20090   20088   20087   20090   20091
   20088   20087   20090   20092   20088   20087   20090   20093
   20089   20087   20090   20091   20089   20087   20090   20092
   20089   20087   20090   20093   20094   20107   20110   20111
   20094   20107   20110   20112   20094   20107   20110   20117
   20095   20094   20099   20100   20095   20094   20099   20101
   20095   20094   20099   20102   20095   20094   20103   20104
   20095   20094   20103   20105   20095   20094   20103   20106
   20095   20094   20107   20108   20095   20094   20107   20109
   20095   20094   20107   20110   20099   20094   20095   20096
   20099   20094   20095   20097   20099   20094   20095   20098
   20099   20094   20103   20104   20099   20094   20103   20105
   20099   20094   20103   20106   20099   20094   20107   20108
   20099   20094   20107   20109   20099   20094   20107   20110
   20103   20094   20095   20096   20103   20094   20095   20097
   20103   20094   20095   20098   20103   20094   20099   20100
   20103   20094   20099   20101   20103   20094   20099   20102
   20103   20094   20107   20108   20103   20094   20107   20109
   20103   20094   20107   20110   20107   20094   20095   20096
   20107   20094   20095   20097   20107   20094   20095   20098
   20107   20094   20099   20100   20107   20094   20099   20101
   20107   20094   20099   20102   20107   20094   20103   20104
   20107   20094   20103   20105   20107   20094   20103   20106
   20107   20110   20117   20113   20108   20107   20110   20111
   20108   20107   20110   20112   20108   20107   20110   20117
   20109   20107   20110   20111   20109   20107   20110   20112
   20109   20107   20110   20117   20111   20110   20117   20113
   20112   20110   20117   20113   20113   20116   20118   20119
   20113   20116   20118   20120   20113   20116   20118   20121
   20114   20113   20117   20110   20114   20113   20116   20118
   20115   20113   20117   20110   20115   20113   20116   20118
   20116   20113   20117   20110   20116   20118   20121   20122
   20116   20118   20121   20129   20116   20118   20121   20123
   20117   20113   20116   20118   20118   20121   20129   20130
   20118   20121   20129   20131   20118   20121   20129   20132
   20118   20121   20123   20124   20119   20118   20121   20122
   20119   20118   20121   20129   20119   20118   20121   20123
   20120   20118   20121   20122   20120   20118   20121   20129
   20120   20118   20121   20123   20121   20129   20132   20133
   20121   20123   20124   20126   20121   20123   20124   20125
   20122   20121   20129   20130   20122   20121   20129   20131
   20122   20121   20129   20132   20122   20121   20123   20124
   20123   20124   20126   20127   20123   20124   20126   20128
   20123   20124   20126   20138   20123   20121   20129   20130
   20123   20121   20129   20131   20123   20121   20129   20132
   20124   20126   20138   20139   20124   20126   20138   20140
   20124   20126   20138   20141   20125   20124   20126   20127
   20125   20124   20126   20128   20125   20124   20126   20138
   20126   20138   20141   20142   20126   20138   20141   20143
   20126   20138   20141   20144   20127   20126   20138   20139
   20127   20126   20138   20140   20127   20126   20138   20141
   20128   20126   20138   20139   20128   20126   20138   20140
   20128   20126   20138   20141   20129   20121   20123   20124
   20129   20132   20133   20135   20129   20132   20133   20134
   20130   20129   20132   20133   20131   20129   20132   20133
   20132   20133   20135   20136   20132   20133   20135   20137
   20132   20133   20135   20175   20133   20135   20175   20176
   20133   20135   20175   20177   20133   20135   20175   20178
   20134   20133   20135   20136   20134   20133   20135   20137
   20134   20133   20135   20175   20135   20175   20178   20179
   20135   20175   20178   20180   20135   20175   20178   20181
   20136   20135   20175   20176   20136   20135   20175   20177
   20136   20135   20175   20178   20137   20135   20175   20176
   20137   20135   20175   20177   20137   20135   20175   20178
   20138   20141   20144   20145   20138   20141   20144   20146
   20138   20141   20144   20147   20139   20138   20141   20142
   20139   20138   20141   20143   20139   20138   20141   20144
   20140   20138   20141   20142   20140   20138   20141   20143
   20140   20138   20141   20144   20141   20144   20147   20148
   20141   20144   20147   20149   20141   20144   20147   20150
   20142   20141   20144   20145   20142   20141   20144   20146
   20142   20141   20144   20147   20143   20141   20144   20145
   20143   20141   20144   20146   20143   20141   20144   20147
   20144   20147   20150   20151   20144   20147   20150   20152
   20144   20147   20150   20153   20145   20144   20147   20148
   20145   20144   20147   20149   20145   20144   20147   20150
   20146   20144   20147   20148   20146   20144   20147   20149
   20146   20144   20147   20150   20147   20150   20153   20154
   20147   20150   20153   20155   20147   20150   20153   20156
   20148   20147   20150   20151   20148   20147   20150   20152
   20148   20147   20150   20153   20149   20147   20150   20151
   20149   20147   20150   20152   20149   20147   20150   20153
   20150   20153   20156   20157   20150   20153   20156   20158
   20150   20153   20156   20159   20151   20150   20153   20154
   20151   20150   20153   20155   20151   20150   20153   20156
   20152   20150   20153   20154   20152   20150   20153   20155
   20152   20150   20153   20156   20153   20156   20159   20160
   20153   20156   20159   20161   20153   20156   20159   20162
   20154   20153   20156   20157   20154   20153   20156   20158
   20154   20153   20156   20159   20155   20153   20156   20157
   20155   20153   20156   20158   20155   20153   20156   20159
   20156   20159   20162   20163   20156   20159   20162   20164
   20156   20159   20162   20165   20157   20156   20159   20160
   20157   20156   20159   20161   20157   20156   20159   20162
   20158   20156   20159   20160   20158   20156   20159   20161
   20158   20156   20159   20162   20159   20162   20165   20166
   20159   20162   20165   20167   20159   20162   20165   20168
   20160   20159   20162   20163   20160   20159   20162   20164
   20160   20159   20162   20165   20161   20159   20162   20163
   20161   20159   20162   20164   20161   20159   20162   20165
   20162   20165   20168   20169   20162   20165   20168   20170
   20162   20165   20168   20171   20163   20162   20165   20166
   20163   20162   20165   20167   20163   20162   20165   20168
   20164   20162   20165   20166   20164   20162   20165   20167
   20164   20162   20165   20168   20165   20168   20171   20172
   20165   20168   20171   20173   20165   20168   20171   20174
   20166   20165   20168   20169   20166   20165   20168   20170
   20166   20165   20168   20171   20167   20165   20168   20169
   20167   20165   20168   20170   20167   20165   20168   20171
   20169   20168   20171   20172   20169   20168   20171   20173
   20169   20168   20171   20174   20170   20168   20171   20172
   20170   20168   20171   20173   20170   20168   20171   20174
   20175   20178   20181   20182   20175   20178   20181   20183
   20175   20178   20181   20184   20176   20175   20178   20179
   20176   20175   20178   20180   20176   20175   20178   20181
   20177   20175   20178   20179   20177   20175   20178   20180
   20177   20175   20178   20181   20178   20181   20184   20185
   20178   20181   20184   20186   20178   20181   20184   20187
   20179   20178   20181   20182   20179   20178   20181   20183
   20179   20178   20181   20184   20180   20178   20181   20182
   20180   20178   20181   20183   20180   20178   20181   20184
   20181   20184   20187   20188   20181   20184   20187   20189
   20181   20184   20187   20190   20182   20181   20184   20185
   20182   20181   20184   20186   20182   20181   20184   20187
   20183   20181   20184   20185   20183   20181   20184   20186
   20183   20181   20184   20187   20184   20187   20190   20191
   20184   20187   20190   20192   20184   20187   20190   20193
   20185   20184   20187   20188   20185   20184   20187   20189
   20185   20184   20187   20190   20186   20184   20187   20188
   20186   20184   20187   20189   20186   20184   20187   20190
   20187   20190   20193   20194   20187   20190   20193   20195
   20187   20190   20193   20196   20188   20187   20190   20191
   20188   20187   20190   20192   20188   20187   20190   20193
   20189   20187   20190   20191   20189   20187   20190   20192
   20189   20187   20190   20193   20190   20193   20196   20197
   20190   20193   20196   20198   20190   20193   20196   20199
   20191   20190   20193   20194   20191   20190   20193   20195
   20191   20190   20193   20196   20192   20190   20193   20194
   20192   20190   20193   20195   20192   20190   20193   20196
   20193   20196   20199   20200   20193   20196   20199   20201
   20193   20196   20199   20202   20194   20193   20196   20197
   20194   20193   20196   20198   20194   20193   20196   20199
   20195   20193   20196   20197   20195   20193   20196   20198
   20195   20193   20196   20199   20196   20199   20202   20203
   20196   20199   20202   20204   20196   20199   20202   20205
   20197   20196   20199   20200   20197   20196   20199   20201
   20197   20196   20199   20202   20198   20196   20199   20200
   20198   20196   20199   20201   20198   20196   20199   20202
   20199   20202   20205   20206   20199   20202   20205   20207
   20199   20202   20205   20208   20200   20199   20202   20203
   20200   20199   20202   20204   20200   20199   20202   20205
   20201   20199   20202   20203   20201   20199   20202   20204
   20201   20199   20202   20205   20202   20205   20208   20209
   20202   20205   20208   20210   20202   20205   20208   20211
   20203   20202   20205   20206   20203   20202   20205   20207
   20203   20202   20205   20208   20204   20202   20205   20206
   20204   20202   20205   20207   20204   20202   20205   20208
   20206   20205   20208   20209   20206   20205   20208   20210
   20206   20205   20208   20211   20207   20205   20208   20209
   20207   20205   20208   20210   20207   20205   20208   20211
   20212   20225   20228   20229   20212   20225   20228   20230
   20212   20225   20228   20235   20213   20212   20217   20218
   20213   20212   20217   20219   20213   20212   20217   20220
   20213   20212   20221   20222   20213   20212   20221   20223
   20213   20212   20221   20224   20213   20212   20225   20226
   20213   20212   20225   20227   20213   20212   20225   20228
   20217   20212   20213   20214   20217   20212   20213   20215
   20217   20212   20213   20216   20217   20212   20221   20222
   20217   20212   20221   20223   20217   20212   20221   20224
   20217   20212   20225   20226   20217   20212   20225   20227
   20217   20212   20225   20228   20221   20212   20213   20214
   20221   20212   20213   20215   20221   20212   20213   20216
   20221   20212   20217   20218   20221   20212   20217   20219
   20221   20212   20217   20220   20221   20212   20225   20226
   20221   20212   20225   20227   20221   20212   20225   20228
   20225   20212   20213   20214   20225   20212   20213   20215
   20225   20212   20213   20216   20225   20212   20217   20218
   20225   20212   20217   20219   20225   20212   20217   20220
   20225   20212   20221   20222   20225   20212   20221   20223
   20225   20212   20221   20224   20225   20228   20235   20231
   20226   20225   20228   20229   20226   20225   20228   20230
   20226   20225   20228   20235   20227   20225   20228   20229
   20227   20225   20228   20230   20227   20225   20228   20235
   20229   20228   20235   20231   20230   20228   20235   20231
   20231   20234   20236   20237   20231   20234   20236   20238
   20231   20234   20236   20239   20232   20231   20235   20228
   20232   20231   20234   20236   20233   20231   20235   20228
   20233   20231   20234   20236   20234   20231   20235   20228
   20234   20236   20239   20240   20234   20236   20239   20247
   20234   20236   20239   20241   20235   20231   20234   20236
   20236   20239   20247   20248   20236   20239   20247   20249
   20236   20239   20247   20250   20236   20239   20241   20242
   20237   20236   20239   20240   20237   20236   20239   20247
   20237   20236   20239   20241   20238   20236   20239   20240
   20238   20236   20239   20247   20238   20236   20239   20241
   20239   20247   20250   20251   20239   20241   20242   20244
   20239   20241   20242   20243   20240   20239   20247   20248
   20240   20239   20247   20249   20240   20239   20247   20250
   20240   20239   20241   20242   20241   20242   20244   20245
   20241   20242   20244   20246   20241   20242   20244   20256
   20241   20239   20247   20248   20241   20239   20247   20249
   20241   20239   20247   20250   20242   20244   20256   20257
   20242   20244   20256   20258   20242   20244   20256   20259
   20243   20242   20244   20245   20243   20242   20244   20246
   20243   20242   20244   20256   20244   20256   20259   20260
   20244   20256   20259   20261   20244   20256   20259   20262
   20245   20244   20256   20257   20245   20244   20256   20258
   20245   20244   20256   20259   20246   20244   20256   20257
   20246   20244   20256   20258   20246   20244   20256   20259
   20247   20239   20241   20242   20247   20250   20251   20253
   20247   20250   20251   20252   20248   20247   20250   20251
   20249   20247   20250   20251   20250   20251   20253   20254
   20250   20251   20253   20255   20250   20251   20253   20293
   20251   20253   20293   20294   20251   20253   20293   20295
   20251   20253   20293   20296   20252   20251   20253   20254
   20252   20251   20253   20255   20252   20251   20253   20293
   20253   20293   20296   20297   20253   20293   20296   20298
   20253   20293   20296   20299   20254   20253   20293   20294
   20254   20253   20293   20295   20254   20253   20293   20296
   20255   20253   20293   20294   20255   20253   20293   20295
   20255   20253   20293   20296   20256   20259   20262   20263
   20256   20259   20262   20264   20256   20259   20262   20265
   20257   20256   20259   20260   20257   20256   20259   20261
   20257   20256   20259   20262   20258   20256   20259   20260
   20258   20256   20259   20261   20258   20256   20259   20262
   20259   20262   20265   20266   20259   20262   20265   20267
   20259   20262   20265   20268   20260   20259   20262   20263
   20260   20259   20262   20264   20260   20259   20262   20265
   20261   20259   20262   20263   20261   20259   20262   20264
   20261   20259   20262   20265   20262   20265   20268   20269
   20262   20265   20268   20270   20262   20265   20268   20271
   20263   20262   20265   20266   20263   20262   20265   20267
   20263   20262   20265   20268   20264   20262   20265   20266
   20264   20262   20265   20267   20264   20262   20265   20268
   20265   20268   20271   20272   20265   20268   20271   20273
   20265   20268   20271   20274   20266   20265   20268   20269
   20266   20265   20268   20270   20266   20265   20268   20271
   20267   20265   20268   20269   20267   20265   20268   20270
   20267   20265   20268   20271   20268   20271   20274   20275
   20268   20271   20274   20276   20268   20271   20274   20277
   20269   20268   20271   20272   20269   20268   20271   20273
   20269   20268   20271   20274   20270   20268   20271   20272
   20270   20268   20271   20273   20270   20268   20271   20274
   20271   20274   20277   20278   20271   20274   20277   20279
   20271   20274   20277   20280   20272   20271   20274   20275
   20272   20271   20274   20276   20272   20271   20274   20277
   20273   20271   20274   20275   20273   20271   20274   20276
   20273   20271   20274   20277   20274   20277   20280   20281
   20274   20277   20280   20282   20274   20277   20280   20283
   20275   20274   20277   20278   20275   20274   20277   20279
   20275   20274   20277   20280   20276   20274   20277   20278
   20276   20274   20277   20279   20276   20274   20277   20280
   20277   20280   20283   20284   20277   20280   20283   20285
   20277   20280   20283   20286   20278   20277   20280   20281
   20278   20277   20280   20282   20278   20277   20280   20283
   20279   20277   20280   20281   20279   20277   20280   20282
   20279   20277   20280   20283   20280   20283   20286   20287
   20280   20283   20286   20288   20280   20283   20286   20289
   20281   20280   20283   20284   20281   20280   20283   20285
   20281   20280   20283   20286   20282   20280   20283   20284
   20282   20280   20283   20285   20282   20280   20283   20286
   20283   20286   20289   20290   20283   20286   20289   20291
   20283   20286   20289   20292   20284   20283   20286   20287
   20284   20283   20286   20288   20284   20283   20286   20289
   20285   20283   20286   20287   20285   20283   20286   20288
   20285   20283   20286   20289   20287   20286   20289   20290
   20287   20286   20289   20291   20287   20286   20289   20292
   20288   20286   20289   20290   20288   20286   20289   20291
   20288   20286   20289   20292   20293   20296   20299   20300
   20293   20296   20299   20301   20293   20296   20299   20302
   20294   20293   20296   20297   20294   20293   20296   20298
   20294   20293   20296   20299   20295   20293   20296   20297
   20295   20293   20296   20298   20295   20293   20296   20299
   20296   20299   20302   20303   20296   20299   20302   20304
   20296   20299   20302   20305   20297   20296   20299   20300
   20297   20296   20299   20301   20297   20296   20299   20302
   20298   20296   20299   20300   20298   20296   20299   20301
   20298   20296   20299   20302   20299   20302   20305   20306
   20299   20302   20305   20307   20299   20302   20305   20308
   20300   20299   20302   20303   20300   20299   20302   20304
   20300   20299   20302   20305   20301   20299   20302   20303
   20301   20299   20302   20304   20301   20299   20302   20305
   20302   20305   20308   20309   20302   20305   20308   20310
   20302   20305   20308   20311   20303   20302   20305   20306
   20303   20302   20305   20307   20303   20302   20305   20308
   20304   20302   20305   20306   20304   20302   20305   20307
   20304   20302   20305   20308   20305   20308   20311   20312
   20305   20308   20311   20313   20305   20308   20311   20314
   20306   20305   20308   20309   20306   20305   20308   20310
   20306   20305   20308   20311   20307   20305   20308   20309
   20307   20305   20308   20310   20307   20305   20308   20311
   20308   20311   20314   20315   20308   20311   20314   20316
   20308   20311   20314   20317   20309   20308   20311   20312
   20309   20308   20311   20313   20309   20308   20311   20314
   20310   20308   20311   20312   20310   20308   20311   20313
   20310   20308   20311   20314   20311   20314   20317   20318
   20311   20314   20317   20319   20311   20314   20317   20320
   20312   20311   20314   20315   20312   20311   20314   20316
   20312   20311   20314   20317   20313   20311   20314   20315
   20313   20311   20314   20316   20313   20311   20314   20317
   20314   20317   20320   20321   20314   20317   20320   20322
   20314   20317   20320   20323   20315   20314   20317   20318
   20315   20314   20317   20319   20315   20314   20317   20320
   20316   20314   20317   20318   20316   20314   20317   20319
   20316   20314   20317   20320   20317   20320   20323   20324
   20317   20320   20323   20325   20317   20320   20323   20326
   20318   20317   20320   20321   20318   20317   20320   20322
   20318   20317   20320   20323   20319   20317   20320   20321
   20319   20317   20320   20322   20319   20317   20320   20323
   20320   20323   20326   20327   20320   20323   20326   20328
   20320   20323   20326   20329   20321   20320   20323   20324
   20321   20320   20323   20325   20321   20320   20323   20326
   20322   20320   20323   20324   20322   20320   20323   20325
   20322   20320   20323   20326   20324   20323   20326   20327
   20324   20323   20326   20328   20324   20323   20326   20329
   20325   20323   20326   20327   20325   20323   20326   20328
   20325   20323   20326   20329   20330   20343   20346   20347
   20330   20343   20346   20348   20330   20343   20346   20353
   20331   20330   20335   20336   20331   20330   20335   20337
   20331   20330   20335   20338   20331   20330   20339   20340
   20331   20330   20339   20341   20331   20330   20339   20342
   20331   20330   20343   20344   20331   20330   20343   20345
   20331   20330   20343   20346   20335   20330   20331   20332
   20335   20330   20331   20333   20335   20330   20331   20334
   20335   20330   20339   20340   20335   20330   20339   20341
   20335   20330   20339   20342   20335   20330   20343   20344
   20335   20330   20343   20345   20335   20330   20343   20346
   20339   20330   20331   20332   20339   20330   20331   20333
   20339   20330   20331   20334   20339   20330   20335   20336
   20339   20330   20335   20337   20339   20330   20335   20338
   20339   20330   20343   20344   20339   20330   20343   20345
   20339   20330   20343   20346   20343   20330   20331   20332
   20343   20330   20331   20333   20343   20330   20331   20334
   20343   20330   20335   20336   20343   20330   20335   20337
   20343   20330   20335   20338   20343   20330   20339   20340
   20343   20330   20339   20341   20343   20330   20339   20342
   20343   20346   20353   20349   20344   20343   20346   20347
   20344   20343   20346   20348   20344   20343   20346   20353
   20345   20343   20346   20347   20345   20343   20346   20348
   20345   20343   20346   20353   20347   20346   20353   20349
   20348   20346   20353   20349   20349   20352   20354   20355
   20349   20352   20354   20356   20349   20352   20354   20357
   20350   20349   20353   20346   20350   20349   20352   20354
   20351   20349   20353   20346   20351   20349   20352   20354
   20352   20349   20353   20346   20352   20354   20357   20358
   20352   20354   20357   20365   20352   20354   20357   20359
   20353   20349   20352   20354   20354   20357   20365   20366
   20354   20357   20365   20367   20354   20357   20365   20368
   20354   20357   20359   20360   20355   20354   20357   20358
   20355   20354   20357   20365   20355   20354   20357   20359
   20356   20354   20357   20358   20356   20354   20357   20365
   20356   20354   20357   20359   20357   20365   20368   20369
   20357   20359   20360   20362   20357   20359   20360   20361
   20358   20357   20365   20366   20358   20357   20365   20367
   20358   20357   20365   20368   20358   20357   20359   20360
   20359   20360   20362   20363   20359   20360   20362   20364
   20359   20360   20362   20374   20359   20357   20365   20366
   20359   20357   20365   20367   20359   20357   20365   20368
   20360   20362   20374   20375   20360   20362   20374   20376
   20360   20362   20374   20377   20361   20360   20362   20363
   20361   20360   20362   20364   20361   20360   20362   20374
   20362   20374   20377   20378   20362   20374   20377   20379
   20362   20374   20377   20380   20363   20362   20374   20375
   20363   20362   20374   20376   20363   20362   20374   20377
   20364   20362   20374   20375   20364   20362   20374   20376
   20364   20362   20374   20377   20365   20357   20359   20360
   20365   20368   20369   20371   20365   20368   20369   20370
   20366   20365   20368   20369   20367   20365   20368   20369
   20368   20369   20371   20372   20368   20369   20371   20373
   20368   20369   20371   20411   20369   20371   20411   20412
   20369   20371   20411   20413   20369   20371   20411   20414
   20370   20369   20371   20372   20370   20369   20371   20373
   20370   20369   20371   20411   20371   20411   20414   20415
   20371   20411   20414   20416   20371   20411   20414   20417
   20372   20371   20411   20412   20372   20371   20411   20413
   20372   20371   20411   20414   20373   20371   20411   20412
   20373   20371   20411   20413   20373   20371   20411   20414
   20374   20377   20380   20381   20374   20377   20380   20382
   20374   20377   20380   20383   20375   20374   20377   20378
   20375   20374   20377   20379   20375   20374   20377   20380
   20376   20374   20377   20378   20376   20374   20377   20379
   20376   20374   20377   20380   20377   20380   20383   20384
   20377   20380   20383   20385   20377   20380   20383   20386
   20378   20377   20380   20381   20378   20377   20380   20382
   20378   20377   20380   20383   20379   20377   20380   20381
   20379   20377   20380   20382   20379   20377   20380   20383
   20380   20383   20386   20387   20380   20383   20386   20388
   20380   20383   20386   20389   20381   20380   20383   20384
   20381   20380   20383   20385   20381   20380   20383   20386
   20382   20380   20383   20384   20382   20380   20383   20385
   20382   20380   20383   20386   20383   20386   20389   20390
   20383   20386   20389   20391   20383   20386   20389   20392
   20384   20383   20386   20387   20384   20383   20386   20388
   20384   20383   20386   20389   20385   20383   20386   20387
   20385   20383   20386   20388   20385   20383   20386   20389
   20386   20389   20392   20393   20386   20389   20392   20394
   20386   20389   20392   20395   20387   20386   20389   20390
   20387   20386   20389   20391   20387   20386   20389   20392
   20388   20386   20389   20390   20388   20386   20389   20391
   20388   20386   20389   20392   20389   20392   20395   20396
   20389   20392   20395   20397   20389   20392   20395   20398
   20390   20389   20392   20393   20390   20389   20392   20394
   20390   20389   20392   20395   20391   20389   20392   20393
   20391   20389   20392   20394   20391   20389   20392   20395
   20392   20395   20398   20399   20392   20395   20398   20400
   20392   20395   20398   20401   20393   20392   20395   20396
   20393   20392   20395   20397   20393   20392   20395   20398
   20394   20392   20395   20396   20394   20392   20395   20397
   20394   20392   20395   20398   20395   20398   20401   20402
   20395   20398   20401   20403   20395   20398   20401   20404
   20396   20395   20398   20399   20396   20395   20398   20400
   20396   20395   20398   20401   20397   20395   20398   20399
   20397   20395   20398   20400   20397   20395   20398   20401
   20398   20401   20404   20405   20398   20401   20404   20406
   20398   20401   20404   20407   20399   20398   20401   20402
   20399   20398   20401   20403   20399   20398   20401   20404
   20400   20398   20401   20402   20400   20398   20401   20403
   20400   20398   20401   20404   20401   20404   20407   20408
   20401   20404   20407   20409   20401   20404   20407   20410
   20402   20401   20404   20405   20402   20401   20404   20406
   20402   20401   20404   20407   20403   20401   20404   20405
   20403   20401   20404   20406   20403   20401   20404   20407
   20405   20404   20407   20408   20405   20404   20407   20409
   20405   20404   20407   20410   20406   20404   20407   20408
   20406   20404   20407   20409   20406   20404   20407   20410
   20411   20414   20417   20418   20411   20414   20417   20419
   20411   20414   20417   20420   20412   20411   20414   20415
   20412   20411   20414   20416   20412   20411   20414   20417
   20413   20411   20414   20415   20413   20411   20414   20416
   20413   20411   20414   20417   20414   20417   20420   20421
   20414   20417   20420   20422   20414   20417   20420   20423
   20415   20414   20417   20418   20415   20414   20417   20419
   20415   20414   20417   20420   20416   20414   20417   20418
   20416   20414   20417   20419   20416   20414   20417   20420
   20417   20420   20423   20424   20417   20420   20423   20425
   20417   20420   20423   20426   20418   20417   20420   20421
   20418   20417   20420   20422   20418   20417   20420   20423
   20419   20417   20420   20421   20419   20417   20420   20422
   20419   20417   20420   20423   20420   20423   20426   20427
   20420   20423   20426   20428   20420   20423   20426   20429
   20421   20420   20423   20424   20421   20420   20423   20425
   20421   20420   20423   20426   20422   20420   20423   20424
   20422   20420   20423   20425   20422   20420   20423   20426
   20423   20426   20429   20430   20423   20426   20429   20431
   20423   20426   20429   20432   20424   20423   20426   20427
   20424   20423   20426   20428   20424   20423   20426   20429
   20425   20423   20426   20427   20425   20423   20426   20428
   20425   20423   20426   20429   20426   20429   20432   20433
   20426   20429   20432   20434   20426   20429   20432   20435
   20427   20426   20429   20430   20427   20426   20429   20431
   20427   20426   20429   20432   20428   20426   20429   20430
   20428   20426   20429   20431   20428   20426   20429   20432
   20429   20432   20435   20436   20429   20432   20435   20437
   20429   20432   20435   20438   20430   20429   20432   20433
   20430   20429   20432   20434   20430   20429   20432   20435
   20431   20429   20432   20433   20431   20429   20432   20434
   20431   20429   20432   20435   20432   20435   20438   20439
   20432   20435   20438   20440   20432   20435   20438   20441
   20433   20432   20435   20436   20433   20432   20435   20437
   20433   20432   20435   20438   20434   20432   20435   20436
   20434   20432   20435   20437   20434   20432   20435   20438
   20435   20438   20441   20442   20435   20438   20441   20443
   20435   20438   20441   20444   20436   20435   20438   20439
   20436   20435   20438   20440   20436   20435   20438   20441
   20437   20435   20438   20439   20437   20435   20438   20440
   20437   20435   20438   20441   20438   20441   20444   20445
   20438   20441   20444   20446   20438   20441   20444   20447
   20439   20438   20441   20442   20439   20438   20441   20443
   20439   20438   20441   20444   20440   20438   20441   20442
   20440   20438   20441   20443   20440   20438   20441   20444
   20442   20441   20444   20445   20442   20441   20444   20446
   20442   20441   20444   20447   20443   20441   20444   20445
   20443   20441   20444   20446   20443   20441   20444   20447
   20448   20461   20464   20465   20448   20461   20464   20466
   20448   20461   20464   20471   20449   20448   20453   20454
   20449   20448   20453   20455   20449   20448   20453   20456
   20449   20448   20457   20458   20449   20448   20457   20459
   20449   20448   20457   20460   20449   20448   20461   20462
   20449   20448   20461   20463   20449   20448   20461   20464
   20453   20448   20449   20450   20453   20448   20449   20451
   20453   20448   20449   20452   20453   20448   20457   20458
   20453   20448   20457   20459   20453   20448   20457   20460
   20453   20448   20461   20462   20453   20448   20461   20463
   20453   20448   20461   20464   20457   20448   20449   20450
   20457   20448   20449   20451   20457   20448   20449   20452
   20457   20448   20453   20454   20457   20448   20453   20455
   20457   20448   20453   20456   20457   20448   20461   20462
   20457   20448   20461   20463   20457   20448   20461   20464
   20461   20448   20449   20450   20461   20448   20449   20451
   20461   20448   20449   20452   20461   20448   20453   20454
   20461   20448   20453   20455   20461   20448   20453   20456
   20461   20448   20457   20458   20461   20448   20457   20459
   20461   20448   20457   20460   20461   20464   20471   20467
   20462   20461   20464   20465   20462   20461   20464   20466
   20462   20461   20464   20471   20463   20461   20464   20465
   20463   20461   20464   20466   20463   20461   20464   20471
   20465   20464   20471   20467   20466   20464   20471   20467
   20467   20470   20472   20473   20467   20470   20472   20474
   20467   20470   20472   20475   20468   20467   20471   20464
   20468   20467   20470   20472   20469   20467   20471   20464
   20469   20467   20470   20472   20470   20467   20471   20464
   20470   20472   20475   20476   20470   20472   20475   20483
   20470   20472   20475   20477   20471   20467   20470   20472
   20472   20475   20483   20484   20472   20475   20483   20485
   20472   20475   20483   20486   20472   20475   20477   20478
   20473   20472   20475   20476   20473   20472   20475   20483
   20473   20472   20475   20477   20474   20472   20475   20476
   20474   20472   20475   20483   20474   20472   20475   20477
   20475   20483   20486   20487   20475   20477   20478   20480
   20475   20477   20478   20479   20476   20475   20483   20484
   20476   20475   20483   20485   20476   20475   20483   20486
   20476   20475   20477   20478   20477   20478   20480   20481
   20477   20478   20480   20482   20477   20478   20480   20492
   20477   20475   20483   20484   20477   20475   20483   20485
   20477   20475   20483   20486   20478   20480   20492   20493
   20478   20480   20492   20494   20478   20480   20492   20495
   20479   20478   20480   20481   20479   20478   20480   20482
   20479   20478   20480   20492   20480   20492   20495   20496
   20480   20492   20495   20497   20480   20492   20495   20498
   20481   20480   20492   20493   20481   20480   20492   20494
   20481   20480   20492   20495   20482   20480   20492   20493
   20482   20480   20492   20494   20482   20480   20492   20495
   20483   20475   20477   20478   20483   20486   20487   20489
   20483   20486   20487   20488   20484   20483   20486   20487
   20485   20483   20486   20487   20486   20487   20489   20490
   20486   20487   20489   20491   20486   20487   20489   20529
   20487   20489   20529   20530   20487   20489   20529   20531
   20487   20489   20529   20532   20488   20487   20489   20490
   20488   20487   20489   20491   20488   20487   20489   20529
   20489   20529   20532   20533   20489   20529   20532   20534
   20489   20529   20532   20535   20490   20489   20529   20530
   20490   20489   20529   20531   20490   20489   20529   20532
   20491   20489   20529   20530   20491   20489   20529   20531
   20491   20489   20529   20532   20492   20495   20498   20499
   20492   20495   20498   20500   20492   20495   20498   20501
   20493   20492   20495   20496   20493   20492   20495   20497
   20493   20492   20495   20498   20494   20492   20495   20496
   20494   20492   20495   20497   20494   20492   20495   20498
   20495   20498   20501   20502   20495   20498   20501   20503
   20495   20498   20501   20504   20496   20495   20498   20499
   20496   20495   20498   20500   20496   20495   20498   20501
   20497   20495   20498   20499   20497   20495   20498   20500
   20497   20495   20498   20501   20498   20501   20504   20505
   20498   20501   20504   20506   20498   20501   20504   20507
   20499   20498   20501   20502   20499   20498   20501   20503
   20499   20498   20501   20504   20500   20498   20501   20502
   20500   20498   20501   20503   20500   20498   20501   20504
   20501   20504   20507   20508   20501   20504   20507   20509
   20501   20504   20507   20510   20502   20501   20504   20505
   20502   20501   20504   20506   20502   20501   20504   20507
   20503   20501   20504   20505   20503   20501   20504   20506
   20503   20501   20504   20507   20504   20507   20510   20511
   20504   20507   20510   20512   20504   20507   20510   20513
   20505   20504   20507   20508   20505   20504   20507   20509
   20505   20504   20507   20510   20506   20504   20507   20508
   20506   20504   20507   20509   20506   20504   20507   20510
   20507   20510   20513   20514   20507   20510   20513   20515
   20507   20510   20513   20516   20508   20507   20510   20511
   20508   20507   20510   20512   20508   20507   20510   20513
   20509   20507   20510   20511   20509   20507   20510   20512
   20509   20507   20510   20513   20510   20513   20516   20517
   20510   20513   20516   20518   20510   20513   20516   20519
   20511   20510   20513   20514   20511   20510   20513   20515
   20511   20510   20513   20516   20512   20510   20513   20514
   20512   20510   20513   20515   20512   20510   20513   20516
   20513   20516   20519   20520   20513   20516   20519   20521
   20513   20516   20519   20522   20514   20513   20516   20517
   20514   20513   20516   20518   20514   20513   20516   20519
   20515   20513   20516   20517   20515   20513   20516   20518
   20515   20513   20516   20519   20516   20519   20522   20523
   20516   20519   20522   20524   20516   20519   20522   20525
   20517   20516   20519   20520   20517   20516   20519   20521
   20517   20516   20519   20522   20518   20516   20519   20520
   20518   20516   20519   20521   20518   20516   20519   20522
   20519   20522   20525   20526   20519   20522   20525   20527
   20519   20522   20525   20528   20520   20519   20522   20523
   20520   20519   20522   20524   20520   20519   20522   20525
   20521   20519   20522   20523   20521   20519   20522   20524
   20521   20519   20522   20525   20523   20522   20525   20526
   20523   20522   20525   20527   20523   20522   20525   20528
   20524   20522   20525   20526   20524   20522   20525   20527
   20524   20522   20525   20528   20529   20532   20535   20536
   20529   20532   20535   20537   20529   20532   20535   20538
   20530   20529   20532   20533   20530   20529   20532   20534
   20530   20529   20532   20535   20531   20529   20532   20533
   20531   20529   20532   20534   20531   20529   20532   20535
   20532   20535   20538   20539   20532   20535   20538   20540
   20532   20535   20538   20541   20533   20532   20535   20536
   20533   20532   20535   20537   20533   20532   20535   20538
   20534   20532   20535   20536   20534   20532   20535   20537
   20534   20532   20535   20538   20535   20538   20541   20542
   20535   20538   20541   20543   20535   20538   20541   20544
   20536   20535   20538   20539   20536   20535   20538   20540
   20536   20535   20538   20541   20537   20535   20538   20539
   20537   20535   20538   20540   20537   20535   20538   20541
   20538   20541   20544   20545   20538   20541   20544   20546
   20538   20541   20544   20547   20539   20538   20541   20542
   20539   20538   20541   20543   20539   20538   20541   20544
   20540   20538   20541   20542   20540   20538   20541   20543
   20540   20538   20541   20544   20541   20544   20547   20548
   20541   20544   20547   20549   20541   20544   20547   20550
   20542   20541   20544   20545   20542   20541   20544   20546
   20542   20541   20544   20547   20543   20541   20544   20545
   20543   20541   20544   20546   20543   20541   20544   20547
   20544   20547   20550   20551   20544   20547   20550   20552
   20544   20547   20550   20553   20545   20544   20547   20548
   20545   20544   20547   20549   20545   20544   20547   20550
   20546   20544   20547   20548   20546   20544   20547   20549
   20546   20544   20547   20550   20547   20550   20553   20554
   20547   20550   20553   20555   20547   20550   20553   20556
   20548   20547   20550   20551   20548   20547   20550   20552
   20548   20547   20550   20553   20549   20547   20550   20551
   20549   20547   20550   20552   20549   20547   20550   20553
   20550   20553   20556   20557   20550   20553   20556   20558
   20550   20553   20556   20559   20551   20550   20553   20554
   20551   20550   20553   20555   20551   20550   20553   20556
   20552   20550   20553   20554   20552   20550   20553   20555
   20552   20550   20553   20556   20553   20556   20559   20560
   20553   20556   20559   20561   20553   20556   20559   20562
   20554   20553   20556   20557   20554   20553   20556   20558
   20554   20553   20556   20559   20555   20553   20556   20557
   20555   20553   20556   20558   20555   20553   20556   20559
   20556   20559   20562   20563   20556   20559   20562   20564
   20556   20559   20562   20565   20557   20556   20559   20560
   20557   20556   20559   20561   20557   20556   20559   20562
   20558   20556   20559   20560   20558   20556   20559   20561
   20558   20556   20559   20562   20560   20559   20562   20563
   20560   20559   20562   20564   20560   20559   20562   20565
   20561   20559   20562   20563   20561   20559   20562   20564
   20561   20559   20562   20565   20566   20579   20582   20583
   20566   20579   20582   20584   20566   20579   20582   20589
   20567   20566   20571   20572   20567   20566   20571   20573
   20567   20566   20571   20574   20567   20566   20575   20576
   20567   20566   20575   20577   20567   20566   20575   20578
   20567   20566   20579   20580   20567   20566   20579   20581
   20567   20566   20579   20582   20571   20566   20567   20568
   20571   20566   20567   20569   20571   20566   20567   20570
   20571   20566   20575   20576   20571   20566   20575   20577
   20571   20566   20575   20578   20571   20566   20579   20580
   20571   20566   20579   20581   20571   20566   20579   20582
   20575   20566   20567   20568   20575   20566   20567   20569
   20575   20566   20567   20570   20575   20566   20571   20572
   20575   20566   20571   20573   20575   20566   20571   20574
   20575   20566   20579   20580   20575   20566   20579   20581
   20575   20566   20579   20582   20579   20566   20567   20568
   20579   20566   20567   20569   20579   20566   20567   20570
   20579   20566   20571   20572   20579   20566   20571   20573
   20579   20566   20571   20574   20579   20566   20575   20576
   20579   20566   20575   20577   20579   20566   20575   20578
   20579   20582   20589   20585   20580   20579   20582   20583
   20580   20579   20582   20584   20580   20579   20582   20589
   20581   20579   20582   20583   20581   20579   20582   20584
   20581   20579   20582   20589   20583   20582   20589   20585
   20584   20582   20589   20585   20585   20588   20590   20591
   20585   20588   20590   20592   20585   20588   20590   20593
   20586   20585   20589   20582   20586   20585   20588   20590
   20587   20585   20589   20582   20587   20585   20588   20590
   20588   20585   20589   20582   20588   20590   20593   20594
   20588   20590   20593   20601   20588   20590   20593   20595
   20589   20585   20588   20590   20590   20593   20601   20602
   20590   20593   20601   20603   20590   20593   20601   20604
   20590   20593   20595   20596   20591   20590   20593   20594
   20591   20590   20593   20601   20591   20590   20593   20595
   20592   20590   20593   20594   20592   20590   20593   20601
   20592   20590   20593   20595   20593   20601   20604   20605
   20593   20595   20596   20598   20593   20595   20596   20597
   20594   20593   20601   20602   20594   20593   20601   20603
   20594   20593   20601   20604   20594   20593   20595   20596
   20595   20596   20598   20599   20595   20596   20598   20600
   20595   20596   20598   20610   20595   20593   20601   20602
   20595   20593   20601   20603   20595   20593   20601   20604
   20596   20598   20610   20611   20596   20598   20610   20612
   20596   20598   20610   20613   20597   20596   20598   20599
   20597   20596   20598   20600   20597   20596   20598   20610
   20598   20610   20613   20614   20598   20610   20613   20615
   20598   20610   20613   20616   20599   20598   20610   20611
   20599   20598   20610   20612   20599   20598   20610   20613
   20600   20598   20610   20611   20600   20598   20610   20612
   20600   20598   20610   20613   20601   20593   20595   20596
   20601   20604   20605   20607   20601   20604   20605   20606
   20602   20601   20604   20605   20603   20601   20604   20605
   20604   20605   20607   20608   20604   20605   20607   20609
   20604   20605   20607   20647   20605   20607   20647   20648
   20605   20607   20647   20649   20605   20607   20647   20650
   20606   20605   20607   20608   20606   20605   20607   20609
   20606   20605   20607   20647   20607   20647   20650   20651
   20607   20647   20650   20652   20607   20647   20650   20653
   20608   20607   20647   20648   20608   20607   20647   20649
   20608   20607   20647   20650   20609   20607   20647   20648
   20609   20607   20647   20649   20609   20607   20647   20650
   20610   20613   20616   20617   20610   20613   20616   20618
   20610   20613   20616   20619   20611   20610   20613   20614
   20611   20610   20613   20615   20611   20610   20613   20616
   20612   20610   20613   20614   20612   20610   20613   20615
   20612   20610   20613   20616   20613   20616   20619   20620
   20613   20616   20619   20621   20613   20616   20619   20622
   20614   20613   20616   20617   20614   20613   20616   20618
   20614   20613   20616   20619   20615   20613   20616   20617
   20615   20613   20616   20618   20615   20613   20616   20619
   20616   20619   20622   20623   20616   20619   20622   20624
   20616   20619   20622   20625   20617   20616   20619   20620
   20617   20616   20619   20621   20617   20616   20619   20622
   20618   20616   20619   20620   20618   20616   20619   20621
   20618   20616   20619   20622   20619   20622   20625   20626
   20619   20622   20625   20627   20619   20622   20625   20628
   20620   20619   20622   20623   20620   20619   20622   20624
   20620   20619   20622   20625   20621   20619   20622   20623
   20621   20619   20622   20624   20621   20619   20622   20625
   20622   20625   20628   20629   20622   20625   20628   20630
   20622   20625   20628   20631   20623   20622   20625   20626
   20623   20622   20625   20627   20623   20622   20625   20628
   20624   20622   20625   20626   20624   20622   20625   20627
   20624   20622   20625   20628   20625   20628   20631   20632
   20625   20628   20631   20633   20625   20628   20631   20634
   20626   20625   20628   20629   20626   20625   20628   20630
   20626   20625   20628   20631   20627   20625   20628   20629
   20627   20625   20628   20630   20627   20625   20628   20631
   20628   20631   20634   20635   20628   20631   20634   20636
   20628   20631   20634   20637   20629   20628   20631   20632
   20629   20628   20631   20633   20629   20628   20631   20634
   20630   20628   20631   20632   20630   20628   20631   20633
   20630   20628   20631   20634   20631   20634   20637   20638
   20631   20634   20637   20639   20631   20634   20637   20640
   20632   20631   20634   20635   20632   20631   20634   20636
   20632   20631   20634   20637   20633   20631   20634   20635
   20633   20631   20634   20636   20633   20631   20634   20637
   20634   20637   20640   20641   20634   20637   20640   20642
   20634   20637   20640   20643   20635   20634   20637   20638
   20635   20634   20637   20639   20635   20634   20637   20640
   20636   20634   20637   20638   20636   20634   20637   20639
   20636   20634   20637   20640   20637   20640   20643   20644
   20637   20640   20643   20645   20637   20640   20643   20646
   20638   20637   20640   20641   20638   20637   20640   20642
   20638   20637   20640   20643   20639   20637   20640   20641
   20639   20637   20640   20642   20639   20637   20640   20643
   20641   20640   20643   20644   20641   20640   20643   20645
   20641   20640   20643   20646   20642   20640   20643   20644
   20642   20640   20643   20645   20642   20640   20643   20646
   20647   20650   20653   20654   20647   20650   20653   20655
   20647   20650   20653   20656   20648   20647   20650   20651
   20648   20647   20650   20652   20648   20647   20650   20653
   20649   20647   20650   20651   20649   20647   20650   20652
   20649   20647   20650   20653   20650   20653   20656   20657
   20650   20653   20656   20658   20650   20653   20656   20659
   20651   20650   20653   20654   20651   20650   20653   20655
   20651   20650   20653   20656   20652   20650   20653   20654
   20652   20650   20653   20655   20652   20650   20653   20656
   20653   20656   20659   20660   20653   20656   20659   20661
   20653   20656   20659   20662   20654   20653   20656   20657
   20654   20653   20656   20658   20654   20653   20656   20659
   20655   20653   20656   20657   20655   20653   20656   20658
   20655   20653   20656   20659   20656   20659   20662   20663
   20656   20659   20662   20664   20656   20659   20662   20665
   20657   20656   20659   20660   20657   20656   20659   20661
   20657   20656   20659   20662   20658   20656   20659   20660
   20658   20656   20659   20661   20658   20656   20659   20662
   20659   20662   20665   20666   20659   20662   20665   20667
   20659   20662   20665   20668   20660   20659   20662   20663
   20660   20659   20662   20664   20660   20659   20662   20665
   20661   20659   20662   20663   20661   20659   20662   20664
   20661   20659   20662   20665   20662   20665   20668   20669
   20662   20665   20668   20670   20662   20665   20668   20671
   20663   20662   20665   20666   20663   20662   20665   20667
   20663   20662   20665   20668   20664   20662   20665   20666
   20664   20662   20665   20667   20664   20662   20665   20668
   20665   20668   20671   20672   20665   20668   20671   20673
   20665   20668   20671   20674   20666   20665   20668   20669
   20666   20665   20668   20670   20666   20665   20668   20671
   20667   20665   20668   20669   20667   20665   20668   20670
   20667   20665   20668   20671   20668   20671   20674   20675
   20668   20671   20674   20676   20668   20671   20674   20677
   20669   20668   20671   20672   20669   20668   20671   20673
   20669   20668   20671   20674   20670   20668   20671   20672
   20670   20668   20671   20673   20670   20668   20671   20674
   20671   20674   20677   20678   20671   20674   20677   20679
   20671   20674   20677   20680   20672   20671   20674   20675
   20672   20671   20674   20676   20672   20671   20674   20677
   20673   20671   20674   20675   20673   20671   20674   20676
   20673   20671   20674   20677   20674   20677   20680   20681
   20674   20677   20680   20682   20674   20677   20680   20683
   20675   20674   20677   20678   20675   20674   20677   20679
   20675   20674   20677   20680   20676   20674   20677   20678
   20676   20674   20677   20679   20676   20674   20677   20680
   20678   20677   20680   20681   20678   20677   20680   20682
   20678   20677   20680   20683   20679   20677   20680   20681
   20679   20677   20680   20682   20679   20677   20680   20683
   20684   20697   20700   20701   20684   20697   20700   20702
   20684   20697   20700   20707   20685   20684   20689   20690
   20685   20684   20689   20691   20685   20684   20689   20692
   20685   20684   20693   20694   20685   20684   20693   20695
   20685   20684   20693   20696   20685   20684   20697   20698
   20685   20684   20697   20699   20685   20684   20697   20700
   20689   20684   20685   20686   20689   20684   20685   20687
   20689   20684   20685   20688   20689   20684   20693   20694
   20689   20684   20693   20695   20689   20684   20693   20696
   20689   20684   20697   20698   20689   20684   20697   20699
   20689   20684   20697   20700   20693   20684   20685   20686
   20693   20684   20685   20687   20693   20684   20685   20688
   20693   20684   20689   20690   20693   20684   20689   20691
   20693   20684   20689   20692   20693   20684   20697   20698
   20693   20684   20697   20699   20693   20684   20697   20700
   20697   20684   20685   20686   20697   20684   20685   20687
   20697   20684   20685   20688   20697   20684   20689   20690
   20697   20684   20689   20691   20697   20684   20689   20692
   20697   20684   20693   20694   20697   20684   20693   20695
   20697   20684   20693   20696   20697   20700   20707   20703
   20698   20697   20700   20701   20698   20697   20700   20702
   20698   20697   20700   20707   20699   20697   20700   20701
   20699   20697   20700   20702   20699   20697   20700   20707
   20701   20700   20707   20703   20702   20700   20707   20703
   20703   20706   20708   20709   20703   20706   20708   20710
   20703   20706   20708   20711   20704   20703   20707   20700
   20704   20703   20706   20708   20705   20703   20707   20700
   20705   20703   20706   20708   20706   20703   20707   20700
   20706   20708   20711   20712   20706   20708   20711   20719
   20706   20708   20711   20713   20707   20703   20706   20708
   20708   20711   20719   20720   20708   20711   20719   20721
   20708   20711   20719   20722   20708   20711   20713   20714
   20709   20708   20711   20712   20709   20708   20711   20719
   20709   20708   20711   20713   20710   20708   20711   20712
   20710   20708   20711   20719   20710   20708   20711   20713
   20711   20719   20722   20723   20711   20713   20714   20716
   20711   20713   20714   20715   20712   20711   20719   20720
   20712   20711   20719   20721   20712   20711   20719   20722
   20712   20711   20713   20714   20713   20714   20716   20717
   20713   20714   20716   20718   20713   20714   20716   20728
   20713   20711   20719   20720   20713   20711   20719   20721
   20713   20711   20719   20722   20714   20716   20728   20729
   20714   20716   20728   20730   20714   20716   20728   20731
   20715   20714   20716   20717   20715   20714   20716   20718
   20715   20714   20716   20728   20716   20728   20731   20732
   20716   20728   20731   20733   20716   20728   20731   20734
   20717   20716   20728   20729   20717   20716   20728   20730
   20717   20716   20728   20731   20718   20716   20728   20729
   20718   20716   20728   20730   20718   20716   20728   20731
   20719   20711   20713   20714   20719   20722   20723   20725
   20719   20722   20723   20724   20720   20719   20722   20723
   20721   20719   20722   20723   20722   20723   20725   20726
   20722   20723   20725   20727   20722   20723   20725   20765
   20723   20725   20765   20766   20723   20725   20765   20767
   20723   20725   20765   20768   20724   20723   20725   20726
   20724   20723   20725   20727   20724   20723   20725   20765
   20725   20765   20768   20769   20725   20765   20768   20770
   20725   20765   20768   20771   20726   20725   20765   20766
   20726   20725   20765   20767   20726   20725   20765   20768
   20727   20725   20765   20766   20727   20725   20765   20767
   20727   20725   20765   20768   20728   20731   20734   20735
   20728   20731   20734   20736   20728   20731   20734   20737
   20729   20728   20731   20732   20729   20728   20731   20733
   20729   20728   20731   20734   20730   20728   20731   20732
   20730   20728   20731   20733   20730   20728   20731   20734
   20731   20734   20737   20738   20731   20734   20737   20739
   20731   20734   20737   20740   20732   20731   20734   20735
   20732   20731   20734   20736   20732   20731   20734   20737
   20733   20731   20734   20735   20733   20731   20734   20736
   20733   20731   20734   20737   20734   20737   20740   20741
   20734   20737   20740   20742   20734   20737   20740   20743
   20735   20734   20737   20738   20735   20734   20737   20739
   20735   20734   20737   20740   20736   20734   20737   20738
   20736   20734   20737   20739   20736   20734   20737   20740
   20737   20740   20743   20744   20737   20740   20743   20745
   20737   20740   20743   20746   20738   20737   20740   20741
   20738   20737   20740   20742   20738   20737   20740   20743
   20739   20737   20740   20741   20739   20737   20740   20742
   20739   20737   20740   20743   20740   20743   20746   20747
   20740   20743   20746   20748   20740   20743   20746   20749
   20741   20740   20743   20744   20741   20740   20743   20745
   20741   20740   20743   20746   20742   20740   20743   20744
   20742   20740   20743   20745   20742   20740   20743   20746
   20743   20746   20749   20750   20743   20746   20749   20751
   20743   20746   20749   20752   20744   20743   20746   20747
   20744   20743   20746   20748   20744   20743   20746   20749
   20745   20743   20746   20747   20745   20743   20746   20748
   20745   20743   20746   20749   20746   20749   20752   20753
   20746   20749   20752   20754   20746   20749   20752   20755
   20747   20746   20749   20750   20747   20746   20749   20751
   20747   20746   20749   20752   20748   20746   20749   20750
   20748   20746   20749   20751   20748   20746   20749   20752
   20749   20752   20755   20756   20749   20752   20755   20757
   20749   20752   20755   20758   20750   20749   20752   20753
   20750   20749   20752   20754   20750   20749   20752   20755
   20751   20749   20752   20753   20751   20749   20752   20754
   20751   20749   20752   20755   20752   20755   20758   20759
   20752   20755   20758   20760   20752   20755   20758   20761
   20753   20752   20755   20756   20753   20752   20755   20757
   20753   20752   20755   20758   20754   20752   20755   20756
   20754   20752   20755   20757   20754   20752   20755   20758
   20755   20758   20761   20762   20755   20758   20761   20763
   20755   20758   20761   20764   20756   20755   20758   20759
   20756   20755   20758   20760   20756   20755   20758   20761
   20757   20755   20758   20759   20757   20755   20758   20760
   20757   20755   20758   20761   20759   20758   20761   20762
   20759   20758   20761   20763   20759   20758   20761   20764
   20760   20758   20761   20762   20760   20758   20761   20763
   20760   20758   20761   20764   20765   20768   20771   20772
   20765   20768   20771   20773   20765   20768   20771   20774
   20766   20765   20768   20769   20766   20765   20768   20770
   20766   20765   20768   20771   20767   20765   20768   20769
   20767   20765   20768   20770   20767   20765   20768   20771
   20768   20771   20774   20775   20768   20771   20774   20776
   20768   20771   20774   20777   20769   20768   20771   20772
   20769   20768   20771   20773   20769   20768   20771   20774
   20770   20768   20771   20772   20770   20768   20771   20773
   20770   20768   20771   20774   20771   20774   20777   20778
   20771   20774   20777   20779   20771   20774   20777   20780
   20772   20771   20774   20775   20772   20771   20774   20776
   20772   20771   20774   20777   20773   20771   20774   20775
   20773   20771   20774   20776   20773   20771   20774   20777
   20774   20777   20780   20781   20774   20777   20780   20782
   20774   20777   20780   20783   20775   20774   20777   20778
   20775   20774   20777   20779   20775   20774   20777   20780
   20776   20774   20777   20778   20776   20774   20777   20779
   20776   20774   20777   20780   20777   20780   20783   20784
   20777   20780   20783   20785   20777   20780   20783   20786
   20778   20777   20780   20781   20778   20777   20780   20782
   20778   20777   20780   20783   20779   20777   20780   20781
   20779   20777   20780   20782   20779   20777   20780   20783
   20780   20783   20786   20787   20780   20783   20786   20788
   20780   20783   20786   20789   20781   20780   20783   20784
   20781   20780   20783   20785   20781   20780   20783   20786
   20782   20780   20783   20784   20782   20780   20783   20785
   20782   20780   20783   20786   20783   20786   20789   20790
   20783   20786   20789   20791   20783   20786   20789   20792
   20784   20783   20786   20787   20784   20783   20786   20788
   20784   20783   20786   20789   20785   20783   20786   20787
   20785   20783   20786   20788   20785   20783   20786   20789
   20786   20789   20792   20793   20786   20789   20792   20794
   20786   20789   20792   20795   20787   20786   20789   20790
   20787   20786   20789   20791   20787   20786   20789   20792
   20788   20786   20789   20790   20788   20786   20789   20791
   20788   20786   20789   20792   20789   20792   20795   20796
   20789   20792   20795   20797   20789   20792   20795   20798
   20790   20789   20792   20793   20790   20789   20792   20794
   20790   20789   20792   20795   20791   20789   20792   20793
   20791   20789   20792   20794   20791   20789   20792   20795
   20792   20795   20798   20799   20792   20795   20798   20800
   20792   20795   20798   20801   20793   20792   20795   20796
   20793   20792   20795   20797   20793   20792   20795   20798
   20794   20792   20795   20796   20794   20792   20795   20797
   20794   20792   20795   20798   20796   20795   20798   20799
   20796   20795   20798   20800   20796   20795   20798   20801
   20797   20795   20798   20799   20797   20795   20798   20800
   20797   20795   20798   20801   20802   20815   20818   20819
   20802   20815   20818   20820   20802   20815   20818   20825
   20803   20802   20807   20808   20803   20802   20807   20809
   20803   20802   20807   20810   20803   20802   20811   20812
   20803   20802   20811   20813   20803   20802   20811   20814
   20803   20802   20815   20816   20803   20802   20815   20817
   20803   20802   20815   20818   20807   20802   20803   20804
   20807   20802   20803   20805   20807   20802   20803   20806
   20807   20802   20811   20812   20807   20802   20811   20813
   20807   20802   20811   20814   20807   20802   20815   20816
   20807   20802   20815   20817   20807   20802   20815   20818
   20811   20802   20803   20804   20811   20802   20803   20805
   20811   20802   20803   20806   20811   20802   20807   20808
   20811   20802   20807   20809   20811   20802   20807   20810
   20811   20802   20815   20816   20811   20802   20815   20817
   20811   20802   20815   20818   20815   20802   20803   20804
   20815   20802   20803   20805   20815   20802   20803   20806
   20815   20802   20807   20808   20815   20802   20807   20809
   20815   20802   20807   20810   20815   20802   20811   20812
   20815   20802   20811   20813   20815   20802   20811   20814
   20815   20818   20825   20821   20816   20815   20818   20819
   20816   20815   20818   20820   20816   20815   20818   20825
   20817   20815   20818   20819   20817   20815   20818   20820
   20817   20815   20818   20825   20819   20818   20825   20821
   20820   20818   20825   20821   20821   20824   20826   20827
   20821   20824   20826   20828   20821   20824   20826   20829
   20822   20821   20825   20818   20822   20821   20824   20826
   20823   20821   20825   20818   20823   20821   20824   20826
   20824   20821   20825   20818   20824   20826   20829   20830
   20824   20826   20829   20837   20824   20826   20829   20831
   20825   20821   20824   20826   20826   20829   20837   20838
   20826   20829   20837   20839   20826   20829   20837   20840
   20826   20829   20831   20832   20827   20826   20829   20830
   20827   20826   20829   20837   20827   20826   20829   20831
   20828   20826   20829   20830   20828   20826   20829   20837
   20828   20826   20829   20831   20829   20837   20840   20841
   20829   20831   20832   20834   20829   20831   20832   20833
   20830   20829   20837   20838   20830   20829   20837   20839
   20830   20829   20837   20840   20830   20829   20831   20832
   20831   20832   20834   20835   20831   20832   20834   20836
   20831   20832   20834   20846   20831   20829   20837   20838
   20831   20829   20837   20839   20831   20829   20837   20840
   20832   20834   20846   20847   20832   20834   20846   20848
   20832   20834   20846   20849   20833   20832   20834   20835
   20833   20832   20834   20836   20833   20832   20834   20846
   20834   20846   20849   20850   20834   20846   20849   20851
   20834   20846   20849   20852   20835   20834   20846   20847
   20835   20834   20846   20848   20835   20834   20846   20849
   20836   20834   20846   20847   20836   20834   20846   20848
   20836   20834   20846   20849   20837   20829   20831   20832
   20837   20840   20841   20843   20837   20840   20841   20842
   20838   20837   20840   20841   20839   20837   20840   20841
   20840   20841   20843   20844   20840   20841   20843   20845
   20840   20841   20843   20883   20841   20843   20883   20884
   20841   20843   20883   20885   20841   20843   20883   20886
   20842   20841   20843   20844   20842   20841   20843   20845
   20842   20841   20843   20883   20843   20883   20886   20887
   20843   20883   20886   20888   20843   20883   20886   20889
   20844   20843   20883   20884   20844   20843   20883   20885
   20844   20843   20883   20886   20845   20843   20883   20884
   20845   20843   20883   20885   20845   20843   20883   20886
   20846   20849   20852   20853   20846   20849   20852   20854
   20846   20849   20852   20855   20847   20846   20849   20850
   20847   20846   20849   20851   20847   20846   20849   20852
   20848   20846   20849   20850   20848   20846   20849   20851
   20848   20846   20849   20852   20849   20852   20855   20856
   20849   20852   20855   20857   20849   20852   20855   20858
   20850   20849   20852   20853   20850   20849   20852   20854
   20850   20849   20852   20855   20851   20849   20852   20853
   20851   20849   20852   20854   20851   20849   20852   20855
   20852   20855   20858   20859   20852   20855   20858   20860
   20852   20855   20858   20861   20853   20852   20855   20856
   20853   20852   20855   20857   20853   20852   20855   20858
   20854   20852   20855   20856   20854   20852   20855   20857
   20854   20852   20855   20858   20855   20858   20861   20862
   20855   20858   20861   20863   20855   20858   20861   20864
   20856   20855   20858   20859   20856   20855   20858   20860
   20856   20855   20858   20861   20857   20855   20858   20859
   20857   20855   20858   20860   20857   20855   20858   20861
   20858   20861   20864   20865   20858   20861   20864   20866
   20858   20861   20864   20867   20859   20858   20861   20862
   20859   20858   20861   20863   20859   20858   20861   20864
   20860   20858   20861   20862   20860   20858   20861   20863
   20860   20858   20861   20864   20861   20864   20867   20868
   20861   20864   20867   20869   20861   20864   20867   20870
   20862   20861   20864   20865   20862   20861   20864   20866
   20862   20861   20864   20867   20863   20861   20864   20865
   20863   20861   20864   20866   20863   20861   20864   20867
   20864   20867   20870   20871   20864   20867   20870   20872
   20864   20867   20870   20873   20865   20864   20867   20868
   20865   20864   20867   20869   20865   20864   20867   20870
   20866   20864   20867   20868   20866   20864   20867   20869
   20866   20864   20867   20870   20867   20870   20873   20874
   20867   20870   20873   20875   20867   20870   20873   20876
   20868   20867   20870   20871   20868   20867   20870   20872
   20868   20867   20870   20873   20869   20867   20870   20871
   20869   20867   20870   20872   20869   20867   20870   20873
   20870   20873   20876   20877   20870   20873   20876   20878
   20870   20873   20876   20879   20871   20870   20873   20874
   20871   20870   20873   20875   20871   20870   20873   20876
   20872   20870   20873   20874   20872   20870   20873   20875
   20872   20870   20873   20876   20873   20876   20879   20880
   20873   20876   20879   20881   20873   20876   20879   20882
   20874   20873   20876   20877   20874   20873   20876   20878
   20874   20873   20876   20879   20875   20873   20876   20877
   20875   20873   20876   20878   20875   20873   20876   20879
   20877   20876   20879   20880   20877   20876   20879   20881
   20877   20876   20879   20882   20878   20876   20879   20880
   20878   20876   20879   20881   20878   20876   20879   20882
   20883   20886   20889   20890   20883   20886   20889   20891
   20883   20886   20889   20892   20884   20883   20886   20887
   20884   20883   20886   20888   20884   20883   20886   20889
   20885   20883   20886   20887   20885   20883   20886   20888
   20885   20883   20886   20889   20886   20889   20892   20893
   20886   20889   20892   20894   20886   20889   20892   20895
   20887   20886   20889   20890   20887   20886   20889   20891
   20887   20886   20889   20892   20888   20886   20889   20890
   20888   20886   20889   20891   20888   20886   20889   20892
   20889   20892   20895   20896   20889   20892   20895   20897
   20889   20892   20895   20898   20890   20889   20892   20893
   20890   20889   20892   20894   20890   20889   20892   20895
   20891   20889   20892   20893   20891   20889   20892   20894
   20891   20889   20892   20895   20892   20895   20898   20899
   20892   20895   20898   20900   20892   20895   20898   20901
   20893   20892   20895   20896   20893   20892   20895   20897
   20893   20892   20895   20898   20894   20892   20895   20896
   20894   20892   20895   20897   20894   20892   20895   20898
   20895   20898   20901   20902   20895   20898   20901   20903
   20895   20898   20901   20904   20896   20895   20898   20899
   20896   20895   20898   20900   20896   20895   20898   20901
   20897   20895   20898   20899   20897   20895   20898   20900
   20897   20895   20898   20901   20898   20901   20904   20905
   20898   20901   20904   20906   20898   20901   20904   20907
   20899   20898   20901   20902   20899   20898   20901   20903
   20899   20898   20901   20904   20900   20898   20901   20902
   20900   20898   20901   20903   20900   20898   20901   20904
   20901   20904   20907   20908   20901   20904   20907   20909
   20901   20904   20907   20910   20902   20901   20904   20905
   20902   20901   20904   20906   20902   20901   20904   20907
   20903   20901   20904   20905   20903   20901   20904   20906
   20903   20901   20904   20907   20904   20907   20910   20911
   20904   20907   20910   20912   20904   20907   20910   20913
   20905   20904   20907   20908   20905   20904   20907   20909
   20905   20904   20907   20910   20906   20904   20907   20908
   20906   20904   20907   20909   20906   20904   20907   20910
   20907   20910   20913   20914   20907   20910   20913   20915
   20907   20910   20913   20916   20908   20907   20910   20911
   20908   20907   20910   20912   20908   20907   20910   20913
   20909   20907   20910   20911   20909   20907   20910   20912
   20909   20907   20910   20913   20910   20913   20916   20917
   20910   20913   20916   20918   20910   20913   20916   20919
   20911   20910   20913   20914   20911   20910   20913   20915
   20911   20910   20913   20916   20912   20910   20913   20914
   20912   20910   20913   20915   20912   20910   20913   20916
   20914   20913   20916   20917   20914   20913   20916   20918
   20914   20913   20916   20919   20915   20913   20916   20917
   20915   20913   20916   20918   20915   20913   20916   20919
   20920   20933   20936   20937   20920   20933   20936   20938
   20920   20933   20936   20943   20921   20920   20925   20926
   20921   20920   20925   20927   20921   20920   20925   20928
   20921   20920   20929   20930   20921   20920   20929   20931
   20921   20920   20929   20932   20921   20920   20933   20934
   20921   20920   20933   20935   20921   20920   20933   20936
   20925   20920   20921   20922   20925   20920   20921   20923
   20925   20920   20921   20924   20925   20920   20929   20930
   20925   20920   20929   20931   20925   20920   20929   20932
   20925   20920   20933   20934   20925   20920   20933   20935
   20925   20920   20933   20936   20929   20920   20921   20922
   20929   20920   20921   20923   20929   20920   20921   20924
   20929   20920   20925   20926   20929   20920   20925   20927
   20929   20920   20925   20928   20929   20920   20933   20934
   20929   20920   20933   20935   20929   20920   20933   20936
   20933   20920   20921   20922   20933   20920   20921   20923
   20933   20920   20921   20924   20933   20920   20925   20926
   20933   20920   20925   20927   20933   20920   20925   20928
   20933   20920   20929   20930   20933   20920   20929   20931
   20933   20920   20929   20932   20933   20936   20943   20939
   20934   20933   20936   20937   20934   20933   20936   20938
   20934   20933   20936   20943   20935   20933   20936   20937
   20935   20933   20936   20938   20935   20933   20936   20943
   20937   20936   20943   20939   20938   20936   20943   20939
   20939   20942   20944   20945   20939   20942   20944   20946
   20939   20942   20944   20947   20940   20939   20943   20936
   20940   20939   20942   20944   20941   20939   20943   20936
   20941   20939   20942   20944   20942   20939   20943   20936
   20942   20944   20947   20948   20942   20944   20947   20955
   20942   20944   20947   20949   20943   20939   20942   20944
   20944   20947   20955   20956   20944   20947   20955   20957
   20944   20947   20955   20958   20944   20947   20949   20950
   20945   20944   20947   20948   20945   20944   20947   20955
   20945   20944   20947   20949   20946   20944   20947   20948
   20946   20944   20947   20955   20946   20944   20947   20949
   20947   20955   20958   20959   20947   20949   20950   20952
   20947   20949   20950   20951   20948   20947   20955   20956
   20948   20947   20955   20957   20948   20947   20955   20958
   20948   20947   20949   20950   20949   20950   20952   20953
   20949   20950   20952   20954   20949   20950   20952   20964
   20949   20947   20955   20956   20949   20947   20955   20957
   20949   20947   20955   20958   20950   20952   20964   20965
   20950   20952   20964   20966   20950   20952   20964   20967
   20951   20950   20952   20953   20951   20950   20952   20954
   20951   20950   20952   20964   20952   20964   20967   20968
   20952   20964   20967   20969   20952   20964   20967   20970
   20953   20952   20964   20965   20953   20952   20964   20966
   20953   20952   20964   20967   20954   20952   20964   20965
   20954   20952   20964   20966   20954   20952   20964   20967
   20955   20947   20949   20950   20955   20958   20959   20961
   20955   20958   20959   20960   20956   20955   20958   20959
   20957   20955   20958   20959   20958   20959   20961   20962
   20958   20959   20961   20963   20958   20959   20961   21001
   20959   20961   21001   21002   20959   20961   21001   21003
   20959   20961   21001   21004   20960   20959   20961   20962
   20960   20959   20961   20963   20960   20959   20961   21001
   20961   21001   21004   21005   20961   21001   21004   21006
   20961   21001   21004   21007   20962   20961   21001   21002
   20962   20961   21001   21003   20962   20961   21001   21004
   20963   20961   21001   21002   20963   20961   21001   21003
   20963   20961   21001   21004   20964   20967   20970   20971
   20964   20967   20970   20972   20964   20967   20970   20973
   20965   20964   20967   20968   20965   20964   20967   20969
   20965   20964   20967   20970   20966   20964   20967   20968
   20966   20964   20967   20969   20966   20964   20967   20970
   20967   20970   20973   20974   20967   20970   20973   20975
   20967   20970   20973   20976   20968   20967   20970   20971
   20968   20967   20970   20972   20968   20967   20970   20973
   20969   20967   20970   20971   20969   20967   20970   20972
   20969   20967   20970   20973   20970   20973   20976   20977
   20970   20973   20976   20978   20970   20973   20976   20979
   20971   20970   20973   20974   20971   20970   20973   20975
   20971   20970   20973   20976   20972   20970   20973   20974
   20972   20970   20973   20975   20972   20970   20973   20976
   20973   20976   20979   20980   20973   20976   20979   20981
   20973   20976   20979   20982   20974   20973   20976   20977
   20974   20973   20976   20978   20974   20973   20976   20979
   20975   20973   20976   20977   20975   20973   20976   20978
   20975   20973   20976   20979   20976   20979   20982   20983
   20976   20979   20982   20984   20976   20979   20982   20985
   20977   20976   20979   20980   20977   20976   20979   20981
   20977   20976   20979   20982   20978   20976   20979   20980
   20978   20976   20979   20981   20978   20976   20979   20982
   20979   20982   20985   20986   20979   20982   20985   20987
   20979   20982   20985   20988   20980   20979   20982   20983
   20980   20979   20982   20984   20980   20979   20982   20985
   20981   20979   20982   20983   20981   20979   20982   20984
   20981   20979   20982   20985   20982   20985   20988   20989
   20982   20985   20988   20990   20982   20985   20988   20991
   20983   20982   20985   20986   20983   20982   20985   20987
   20983   20982   20985   20988   20984   20982   20985   20986
   20984   20982   20985   20987   20984   20982   20985   20988
   20985   20988   20991   20992   20985   20988   20991   20993
   20985   20988   20991   20994   20986   20985   20988   20989
   20986   20985   20988   20990   20986   20985   20988   20991
   20987   20985   20988   20989   20987   20985   20988   20990
   20987   20985   20988   20991   20988   20991   20994   20995
   20988   20991   20994   20996   20988   20991   20994   20997
   20989   20988   20991   20992   20989   20988   20991   20993
   20989   20988   20991   20994   20990   20988   20991   20992
   20990   20988   20991   20993   20990   20988   20991   20994
   20991   20994   20997   20998   20991   20994   20997   20999
   20991   20994   20997   21000   20992   20991   20994   20995
   20992   20991   20994   20996   20992   20991   20994   20997
   20993   20991   20994   20995   20993   20991   20994   20996
   20993   20991   20994   20997   20995   20994   20997   20998
   20995   20994   20997   20999   20995   20994   20997   21000
   20996   20994   20997   20998   20996   20994   20997   20999
   20996   20994   20997   21000   21001   21004   21007   21008
   21001   21004   21007   21009   21001   21004   21007   21010
   21002   21001   21004   21005   21002   21001   21004   21006
   21002   21001   21004   21007   21003   21001   21004   21005
   21003   21001   21004   21006   21003   21001   21004   21007
   21004   21007   21010   21011   21004   21007   21010   21012
   21004   21007   21010   21013   21005   21004   21007   21008
   21005   21004   21007   21009   21005   21004   21007   21010
   21006   21004   21007   21008   21006   21004   21007   21009
   21006   21004   21007   21010   21007   21010   21013   21014
   21007   21010   21013   21015   21007   21010   21013   21016
   21008   21007   21010   21011   21008   21007   21010   21012
   21008   21007   21010   21013   21009   21007   21010   21011
   21009   21007   21010   21012   21009   21007   21010   21013
   21010   21013   21016   21017   21010   21013   21016   21018
   21010   21013   21016   21019   21011   21010   21013   21014
   21011   21010   21013   21015   21011   21010   21013   21016
   21012   21010   21013   21014   21012   21010   21013   21015
   21012   21010   21013   21016   21013   21016   21019   21020
   21013   21016   21019   21021   21013   21016   21019   21022
   21014   21013   21016   21017   21014   21013   21016   21018
   21014   21013   21016   21019   21015   21013   21016   21017
   21015   21013   21016   21018   21015   21013   21016   21019
   21016   21019   21022   21023   21016   21019   21022   21024
   21016   21019   21022   21025   21017   21016   21019   21020
   21017   21016   21019   21021   21017   21016   21019   21022
   21018   21016   21019   21020   21018   21016   21019   21021
   21018   21016   21019   21022   21019   21022   21025   21026
   21019   21022   21025   21027   21019   21022   21025   21028
   21020   21019   21022   21023   21020   21019   21022   21024
   21020   21019   21022   21025   21021   21019   21022   21023
   21021   21019   21022   21024   21021   21019   21022   21025
   21022   21025   21028   21029   21022   21025   21028   21030
   21022   21025   21028   21031   21023   21022   21025   21026
   21023   21022   21025   21027   21023   21022   21025   21028
   21024   21022   21025   21026   21024   21022   21025   21027
   21024   21022   21025   21028   21025   21028   21031   21032
   21025   21028   21031   21033   21025   21028   21031   21034
   21026   21025   21028   21029   21026   21025   21028   21030
   21026   21025   21028   21031   21027   21025   21028   21029
   21027   21025   21028   21030   21027   21025   21028   21031
   21028   21031   21034   21035   21028   21031   21034   21036
   21028   21031   21034   21037   21029   21028   21031   21032
   21029   21028   21031   21033   21029   21028   21031   21034
   21030   21028   21031   21032   21030   21028   21031   21033
   21030   21028   21031   21034   21032   21031   21034   21035
   21032   21031   21034   21036   21032   21031   21034   21037
   21033   21031   21034   21035   21033   21031   21034   21036
   21033   21031   21034   21037   21038   21051   21054   21055
   21038   21051   21054   21056   21038   21051   21054   21061
   21039   21038   21043   21044   21039   21038   21043   21045
   21039   21038   21043   21046   21039   21038   21047   21048
   21039   21038   21047   21049   21039   21038   21047   21050
   21039   21038   21051   21052   21039   21038   21051   21053
   21039   21038   21051   21054   21043   21038   21039   21040
   21043   21038   21039   21041   21043   21038   21039   21042
   21043   21038   21047   21048   21043   21038   21047   21049
   21043   21038   21047   21050   21043   21038   21051   21052
   21043   21038   21051   21053   21043   21038   21051   21054
   21047   21038   21039   21040   21047   21038   21039   21041
   21047   21038   21039   21042   21047   21038   21043   21044
   21047   21038   21043   21045   21047   21038   21043   21046
   21047   21038   21051   21052   21047   21038   21051   21053
   21047   21038   21051   21054   21051   21038   21039   21040
   21051   21038   21039   21041   21051   21038   21039   21042
   21051   21038   21043   21044   21051   21038   21043   21045
   21051   21038   21043   21046   21051   21038   21047   21048
   21051   21038   21047   21049   21051   21038   21047   21050
   21051   21054   21061   21057   21052   21051   21054   21055
   21052   21051   21054   21056   21052   21051   21054   21061
   21053   21051   21054   21055   21053   21051   21054   21056
   21053   21051   21054   21061   21055   21054   21061   21057
   21056   21054   21061   21057   21057   21060   21062   21063
   21057   21060   21062   21064   21057   21060   21062   21065
   21058   21057   21061   21054   21058   21057   21060   21062
   21059   21057   21061   21054   21059   21057   21060   21062
   21060   21057   21061   21054   21060   21062   21065   21066
   21060   21062   21065   21073   21060   21062   21065   21067
   21061   21057   21060   21062   21062   21065   21073   21074
   21062   21065   21073   21075   21062   21065   21073   21076
   21062   21065   21067   21068   21063   21062   21065   21066
   21063   21062   21065   21073   21063   21062   21065   21067
   21064   21062   21065   21066   21064   21062   21065   21073
   21064   21062   21065   21067   21065   21073   21076   21077
   21065   21067   21068   21070   21065   21067   21068   21069
   21066   21065   21073   21074   21066   21065   21073   21075
   21066   21065   21073   21076   21066   21065   21067   21068
   21067   21068   21070   21071   21067   21068   21070   21072
   21067   21068   21070   21082   21067   21065   21073   21074
   21067   21065   21073   21075   21067   21065   21073   21076
   21068   21070   21082   21083   21068   21070   21082   21084
   21068   21070   21082   21085   21069   21068   21070   21071
   21069   21068   21070   21072   21069   21068   21070   21082
   21070   21082   21085   21086   21070   21082   21085   21087
   21070   21082   21085   21088   21071   21070   21082   21083
   21071   21070   21082   21084   21071   21070   21082   21085
   21072   21070   21082   21083   21072   21070   21082   21084
   21072   21070   21082   21085   21073   21065   21067   21068
   21073   21076   21077   21079   21073   21076   21077   21078
   21074   21073   21076   21077   21075   21073   21076   21077
   21076   21077   21079   21080   21076   21077   21079   21081
   21076   21077   21079   21119   21077   21079   21119   21120
   21077   21079   21119   21121   21077   21079   21119   21122
   21078   21077   21079   21080   21078   21077   21079   21081
   21078   21077   21079   21119   21079   21119   21122   21123
   21079   21119   21122   21124   21079   21119   21122   21125
   21080   21079   21119   21120   21080   21079   21119   21121
   21080   21079   21119   21122   21081   21079   21119   21120
   21081   21079   21119   21121   21081   21079   21119   21122
   21082   21085   21088   21089   21082   21085   21088   21090
   21082   21085   21088   21091   21083   21082   21085   21086
   21083   21082   21085   21087   21083   21082   21085   21088
   21084   21082   21085   21086   21084   21082   21085   21087
   21084   21082   21085   21088   21085   21088   21091   21092
   21085   21088   21091   21093   21085   21088   21091   21094
   21086   21085   21088   21089   21086   21085   21088   21090
   21086   21085   21088   21091   21087   21085   21088   21089
   21087   21085   21088   21090   21087   21085   21088   21091
   21088   21091   21094   21095   21088   21091   21094   21096
   21088   21091   21094   21097   21089   21088   21091   21092
   21089   21088   21091   21093   21089   21088   21091   21094
   21090   21088   21091   21092   21090   21088   21091   21093
   21090   21088   21091   21094   21091   21094   21097   21098
   21091   21094   21097   21099   21091   21094   21097   21100
   21092   21091   21094   21095   21092   21091   21094   21096
   21092   21091   21094   21097   21093   21091   21094   21095
   21093   21091   21094   21096   21093   21091   21094   21097
   21094   21097   21100   21101   21094   21097   21100   21102
   21094   21097   21100   21103   21095   21094   21097   21098
   21095   21094   21097   21099   21095   21094   21097   21100
   21096   21094   21097   21098   21096   21094   21097   21099
   21096   21094   21097   21100   21097   21100   21103   21104
   21097   21100   21103   21105   21097   21100   21103   21106
   21098   21097   21100   21101   21098   21097   21100   21102
   21098   21097   21100   21103   21099   21097   21100   21101
   21099   21097   21100   21102   21099   21097   21100   21103
   21100   21103   21106   21107   21100   21103   21106   21108
   21100   21103   21106   21109   21101   21100   21103   21104
   21101   21100   21103   21105   21101   21100   21103   21106
   21102   21100   21103   21104   21102   21100   21103   21105
   21102   21100   21103   21106   21103   21106   21109   21110
   21103   21106   21109   21111   21103   21106   21109   21112
   21104   21103   21106   21107   21104   21103   21106   21108
   21104   21103   21106   21109   21105   21103   21106   21107
   21105   21103   21106   21108   21105   21103   21106   21109
   21106   21109   21112   21113   21106   21109   21112   21114
   21106   21109   21112   21115   21107   21106   21109   21110
   21107   21106   21109   21111   21107   21106   21109   21112
   21108   21106   21109   21110   21108   21106   21109   21111
   21108   21106   21109   21112   21109   21112   21115   21116
   21109   21112   21115   21117   21109   21112   21115   21118
   21110   21109   21112   21113   21110   21109   21112   21114
   21110   21109   21112   21115   21111   21109   21112   21113
   21111   21109   21112   21114   21111   21109   21112   21115
   21113   21112   21115   21116   21113   21112   21115   21117
   21113   21112   21115   21118   21114   21112   21115   21116
   21114   21112   21115   21117   21114   21112   21115   21118
   21119   21122   21125   21126   21119   21122   21125   21127
   21119   21122   21125   21128   21120   21119   21122   21123
   21120   21119   21122   21124   21120   21119   21122   21125
   21121   21119   21122   21123   21121   21119   21122   21124
   21121   21119   21122   21125   21122   21125   21128   21129
   21122   21125   21128   21130   21122   21125   21128   21131
   21123   21122   21125   21126   21123   21122   21125   21127
   21123   21122   21125   21128   21124   21122   21125   21126
   21124   21122   21125   21127   21124   21122   21125   21128
   21125   21128   21131   21132   21125   21128   21131   21133
   21125   21128   21131   21134   21126   21125   21128   21129
   21126   21125   21128   21130   21126   21125   21128   21131
   21127   21125   21128   21129   21127   21125   21128   21130
   21127   21125   21128   21131   21128   21131   21134   21135
   21128   21131   21134   21136   21128   21131   21134   21137
   21129   21128   21131   21132   21129   21128   21131   21133
   21129   21128   21131   21134   21130   21128   21131   21132
   21130   21128   21131   21133   21130   21128   21131   21134
   21131   21134   21137   21138   21131   21134   21137   21139
   21131   21134   21137   21140   21132   21131   21134   21135
   21132   21131   21134   21136   21132   21131   21134   21137
   21133   21131   21134   21135   21133   21131   21134   21136
   21133   21131   21134   21137   21134   21137   21140   21141
   21134   21137   21140   21142   21134   21137   21140   21143
   21135   21134   21137   21138   21135   21134   21137   21139
   21135   21134   21137   21140   21136   21134   21137   21138
   21136   21134   21137   21139   21136   21134   21137   21140
   21137   21140   21143   21144   21137   21140   21143   21145
   21137   21140   21143   21146   21138   21137   21140   21141
   21138   21137   21140   21142   21138   21137   21140   21143
   21139   21137   21140   21141   21139   21137   21140   21142
   21139   21137   21140   21143   21140   21143   21146   21147
   21140   21143   21146   21148   21140   21143   21146   21149
   21141   21140   21143   21144   21141   21140   21143   21145
   21141   21140   21143   21146   21142   21140   21143   21144
   21142   21140   21143   21145   21142   21140   21143   21146
   21143   21146   21149   21150   21143   21146   21149   21151
   21143   21146   21149   21152   21144   21143   21146   21147
   21144   21143   21146   21148   21144   21143   21146   21149
   21145   21143   21146   21147   21145   21143   21146   21148
   21145   21143   21146   21149   21146   21149   21152   21153
   21146   21149   21152   21154   21146   21149   21152   21155
   21147   21146   21149   21150   21147   21146   21149   21151
   21147   21146   21149   21152   21148   21146   21149   21150
   21148   21146   21149   21151   21148   21146   21149   21152
   21150   21149   21152   21153   21150   21149   21152   21154
   21150   21149   21152   21155   21151   21149   21152   21153
   21151   21149   21152   21154   21151   21149   21152   21155
   21156   21169   21172   21173   21156   21169   21172   21174
   21156   21169   21172   21179   21157   21156   21161   21162
   21157   21156   21161   21163   21157   21156   21161   21164
   21157   21156   21165   21166   21157   21156   21165   21167
   21157   21156   21165   21168   21157   21156   21169   21170
   21157   21156   21169   21171   21157   21156   21169   21172
   21161   21156   21157   21158   21161   21156   21157   21159
   21161   21156   21157   21160   21161   21156   21165   21166
   21161   21156   21165   21167   21161   21156   21165   21168
   21161   21156   21169   21170   21161   21156   21169   21171
   21161   21156   21169   21172   21165   21156   21157   21158
   21165   21156   21157   21159   21165   21156   21157   21160
   21165   21156   21161   21162   21165   21156   21161   21163
   21165   21156   21161   21164   21165   21156   21169   21170
   21165   21156   21169   21171   21165   21156   21169   21172
   21169   21156   21157   21158   21169   21156   21157   21159
   21169   21156   21157   21160   21169   21156   21161   21162
   21169   21156   21161   21163   21169   21156   21161   21164
   21169   21156   21165   21166   21169   21156   21165   21167
   21169   21156   21165   21168   21169   21172   21179   21175
   21170   21169   21172   21173   21170   21169   21172   21174
   21170   21169   21172   21179   21171   21169   21172   21173
   21171   21169   21172   21174   21171   21169   21172   21179
   21173   21172   21179   21175   21174   21172   21179   21175
   21175   21178   21180   21181   21175   21178   21180   21182
   21175   21178   21180   21183   21176   21175   21179   21172
   21176   21175   21178   21180   21177   21175   21179   21172
   21177   21175   21178   21180   21178   21175   21179   21172
   21178   21180   21183   21184   21178   21180   21183   21191
   21178   21180   21183   21185   21179   21175   21178   21180
   21180   21183   21191   21192   21180   21183   21191   21193
   21180   21183   21191   21194   21180   21183   21185   21186
   21181   21180   21183   21184   21181   21180   21183   21191
   21181   21180   21183   21185   21182   21180   21183   21184
   21182   21180   21183   21191   21182   21180   21183   21185
   21183   21191   21194   21195   21183   21185   21186   21188
   21183   21185   21186   21187   21184   21183   21191   21192
   21184   21183   21191   21193   21184   21183   21191   21194
   21184   21183   21185   21186   21185   21186   21188   21189
   21185   21186   21188   21190   21185   21186   21188   21200
   21185   21183   21191   21192   21185   21183   21191   21193
   21185   21183   21191   21194   21186   21188   21200   21201
   21186   21188   21200   21202   21186   21188   21200   21203
   21187   21186   21188   21189   21187   21186   21188   21190
   21187   21186   21188   21200   21188   21200   21203   21204
   21188   21200   21203   21205   21188   21200   21203   21206
   21189   21188   21200   21201   21189   21188   21200   21202
   21189   21188   21200   21203   21190   21188   21200   21201
   21190   21188   21200   21202   21190   21188   21200   21203
   21191   21183   21185   21186   21191   21194   21195   21197
   21191   21194   21195   21196   21192   21191   21194   21195
   21193   21191   21194   21195   21194   21195   21197   21198
   21194   21195   21197   21199   21194   21195   21197   21237
   21195   21197   21237   21238   21195   21197   21237   21239
   21195   21197   21237   21240   21196   21195   21197   21198
   21196   21195   21197   21199   21196   21195   21197   21237
   21197   21237   21240   21241   21197   21237   21240   21242
   21197   21237   21240   21243   21198   21197   21237   21238
   21198   21197   21237   21239   21198   21197   21237   21240
   21199   21197   21237   21238   21199   21197   21237   21239
   21199   21197   21237   21240   21200   21203   21206   21207
   21200   21203   21206   21208   21200   21203   21206   21209
   21201   21200   21203   21204   21201   21200   21203   21205
   21201   21200   21203   21206   21202   21200   21203   21204
   21202   21200   21203   21205   21202   21200   21203   21206
   21203   21206   21209   21210   21203   21206   21209   21211
   21203   21206   21209   21212   21204   21203   21206   21207
   21204   21203   21206   21208   21204   21203   21206   21209
   21205   21203   21206   21207   21205   21203   21206   21208
   21205   21203   21206   21209   21206   21209   21212   21213
   21206   21209   21212   21214   21206   21209   21212   21215
   21207   21206   21209   21210   21207   21206   21209   21211
   21207   21206   21209   21212   21208   21206   21209   21210
   21208   21206   21209   21211   21208   21206   21209   21212
   21209   21212   21215   21216   21209   21212   21215   21217
   21209   21212   21215   21218   21210   21209   21212   21213
   21210   21209   21212   21214   21210   21209   21212   21215
   21211   21209   21212   21213   21211   21209   21212   21214
   21211   21209   21212   21215   21212   21215   21218   21219
   21212   21215   21218   21220   21212   21215   21218   21221
   21213   21212   21215   21216   21213   21212   21215   21217
   21213   21212   21215   21218   21214   21212   21215   21216
   21214   21212   21215   21217   21214   21212   21215   21218
   21215   21218   21221   21222   21215   21218   21221   21223
   21215   21218   21221   21224   21216   21215   21218   21219
   21216   21215   21218   21220   21216   21215   21218   21221
   21217   21215   21218   21219   21217   21215   21218   21220
   21217   21215   21218   21221   21218   21221   21224   21225
   21218   21221   21224   21226   21218   21221   21224   21227
   21219   21218   21221   21222   21219   21218   21221   21223
   21219   21218   21221   21224   21220   21218   21221   21222
   21220   21218   21221   21223   21220   21218   21221   21224
   21221   21224   21227   21228   21221   21224   21227   21229
   21221   21224   21227   21230   21222   21221   21224   21225
   21222   21221   21224   21226   21222   21221   21224   21227
   21223   21221   21224   21225   21223   21221   21224   21226
   21223   21221   21224   21227   21224   21227   21230   21231
   21224   21227   21230   21232   21224   21227   21230   21233
   21225   21224   21227   21228   21225   21224   21227   21229
   21225   21224   21227   21230   21226   21224   21227   21228
   21226   21224   21227   21229   21226   21224   21227   21230
   21227   21230   21233   21234   21227   21230   21233   21235
   21227   21230   21233   21236   21228   21227   21230   21231
   21228   21227   21230   21232   21228   21227   21230   21233
   21229   21227   21230   21231   21229   21227   21230   21232
   21229   21227   21230   21233   21231   21230   21233   21234
   21231   21230   21233   21235   21231   21230   21233   21236
   21232   21230   21233   21234   21232   21230   21233   21235
   21232   21230   21233   21236   21237   21240   21243   21244
   21237   21240   21243   21245   21237   21240   21243   21246
   21238   21237   21240   21241   21238   21237   21240   21242
   21238   21237   21240   21243   21239   21237   21240   21241
   21239   21237   21240   21242   21239   21237   21240   21243
   21240   21243   21246   21247   21240   21243   21246   21248
   21240   21243   21246   21249   21241   21240   21243   21244
   21241   21240   21243   21245   21241   21240   21243   21246
   21242   21240   21243   21244   21242   21240   21243   21245
   21242   21240   21243   21246   21243   21246   21249   21250
   21243   21246   21249   21251   21243   21246   21249   21252
   21244   21243   21246   21247   21244   21243   21246   21248
   21244   21243   21246   21249   21245   21243   21246   21247
   21245   21243   21246   21248   21245   21243   21246   21249
   21246   21249   21252   21253   21246   21249   21252   21254
   21246   21249   21252   21255   21247   21246   21249   21250
   21247   21246   21249   21251   21247   21246   21249   21252
   21248   21246   21249   21250   21248   21246   21249   21251
   21248   21246   21249   21252   21249   21252   21255   21256
   21249   21252   21255   21257   21249   21252   21255   21258
   21250   21249   21252   21253   21250   21249   21252   21254
   21250   21249   21252   21255   21251   21249   21252   21253
   21251   21249   21252   21254   21251   21249   21252   21255
   21252   21255   21258   21259   21252   21255   21258   21260
   21252   21255   21258   21261   21253   21252   21255   21256
   21253   21252   21255   21257   21253   21252   21255   21258
   21254   21252   21255   21256   21254   21252   21255   21257
   21254   21252   21255   21258   21255   21258   21261   21262
   21255   21258   21261   21263   21255   21258   21261   21264
   21256   21255   21258   21259   21256   21255   21258   21260
   21256   21255   21258   21261   21257   21255   21258   21259
   21257   21255   21258   21260   21257   21255   21258   21261
   21258   21261   21264   21265   21258   21261   21264   21266
   21258   21261   21264   21267   21259   21258   21261   21262
   21259   21258   21261   21263   21259   21258   21261   21264
   21260   21258   21261   21262   21260   21258   21261   21263
   21260   21258   21261   21264   21261   21264   21267   21268
   21261   21264   21267   21269   21261   21264   21267   21270
   21262   21261   21264   21265   21262   21261   21264   21266
   21262   21261   21264   21267   21263   21261   21264   21265
   21263   21261   21264   21266   21263   21261   21264   21267
   21264   21267   21270   21271   21264   21267   21270   21272
   21264   21267   21270   21273   21265   21264   21267   21268
   21265   21264   21267   21269   21265   21264   21267   21270
   21266   21264   21267   21268   21266   21264   21267   21269
   21266   21264   21267   21270   21268   21267   21270   21271
   21268   21267   21270   21272   21268   21267   21270   21273
   21269   21267   21270   21271   21269   21267   21270   21272
   21269   21267   21270   21273   21274   21287   21290   21291
   21274   21287   21290   21292   21274   21287   21290   21297
   21275   21274   21279   21280   21275   21274   21279   21281
   21275   21274   21279   21282   21275   21274   21283   21284
   21275   21274   21283   21285   21275   21274   21283   21286
   21275   21274   21287   21288   21275   21274   21287   21289
   21275   21274   21287   21290   21279   21274   21275   21276
   21279   21274   21275   21277   21279   21274   21275   21278
   21279   21274   21283   21284   21279   21274   21283   21285
   21279   21274   21283   21286   21279   21274   21287   21288
   21279   21274   21287   21289   21279   21274   21287   21290
   21283   21274   21275   21276   21283   21274   21275   21277
   21283   21274   21275   21278   21283   21274   21279   21280
   21283   21274   21279   21281   21283   21274   21279   21282
   21283   21274   21287   21288   21283   21274   21287   21289
   21283   21274   21287   21290   21287   21274   21275   21276
   21287   21274   21275   21277   21287   21274   21275   21278
   21287   21274   21279   21280   21287   21274   21279   21281
   21287   21274   21279   21282   21287   21274   21283   21284
   21287   21274   21283   21285   21287   21274   21283   21286
   21287   21290   21297   21293   21288   21287   21290   21291
   21288   21287   21290   21292   21288   21287   21290   21297
   21289   21287   21290   21291   21289   21287   21290   21292
   21289   21287   21290   21297   21291   21290   21297   21293
   21292   21290   21297   21293   21293   21296   21298   21299
   21293   21296   21298   21300   21293   21296   21298   21301
   21294   21293   21297   21290   21294   21293   21296   21298
   21295   21293   21297   21290   21295   21293   21296   21298
   21296   21293   21297   21290   21296   21298   21301   21302
   21296   21298   21301   21309   21296   21298   21301   21303
   21297   21293   21296   21298   21298   21301   21309   21310
   21298   21301   21309   21311   21298   21301   21309   21312
   21298   21301   21303   21304   21299   21298   21301   21302
   21299   21298   21301   21309   21299   21298   21301   21303
   21300   21298   21301   21302   21300   21298   21301   21309
   21300   21298   21301   21303   21301   21309   21312   21313
   21301   21303   21304   21306   21301   21303   21304   21305
   21302   21301   21309   21310   21302   21301   21309   21311
   21302   21301   21309   21312   21302   21301   21303   21304
   21303   21304   21306   21307   21303   21304   21306   21308
   21303   21304   21306   21318   21303   21301   21309   21310
   21303   21301   21309   21311   21303   21301   21309   21312
   21304   21306   21318   21319   21304   21306   21318   21320
   21304   21306   21318   21321   21305   21304   21306   21307
   21305   21304   21306   21308   21305   21304   21306   21318
   21306   21318   21321   21322   21306   21318   21321   21323
   21306   21318   21321   21324   21307   21306   21318   21319
   21307   21306   21318   21320   21307   21306   21318   21321
   21308   21306   21318   21319   21308   21306   21318   21320
   21308   21306   21318   21321   21309   21301   21303   21304
   21309   21312   21313   21315   21309   21312   21313   21314
   21310   21309   21312   21313   21311   21309   21312   21313
   21312   21313   21315   21316   21312   21313   21315   21317
   21312   21313   21315   21355   21313   21315   21355   21356
   21313   21315   21355   21357   21313   21315   21355   21358
   21314   21313   21315   21316   21314   21313   21315   21317
   21314   21313   21315   21355   21315   21355   21358   21359
   21315   21355   21358   21360   21315   21355   21358   21361
   21316   21315   21355   21356   21316   21315   21355   21357
   21316   21315   21355   21358   21317   21315   21355   21356
   21317   21315   21355   21357   21317   21315   21355   21358
   21318   21321   21324   21325   21318   21321   21324   21326
   21318   21321   21324   21327   21319   21318   21321   21322
   21319   21318   21321   21323   21319   21318   21321   21324
   21320   21318   21321   21322   21320   21318   21321   21323
   21320   21318   21321   21324   21321   21324   21327   21328
   21321   21324   21327   21329   21321   21324   21327   21330
   21322   21321   21324   21325   21322   21321   21324   21326
   21322   21321   21324   21327   21323   21321   21324   21325
   21323   21321   21324   21326   21323   21321   21324   21327
   21324   21327   21330   21331   21324   21327   21330   21332
   21324   21327   21330   21333   21325   21324   21327   21328
   21325   21324   21327   21329   21325   21324   21327   21330
   21326   21324   21327   21328   21326   21324   21327   21329
   21326   21324   21327   21330   21327   21330   21333   21334
   21327   21330   21333   21335   21327   21330   21333   21336
   21328   21327   21330   21331   21328   21327   21330   21332
   21328   21327   21330   21333   21329   21327   21330   21331
   21329   21327   21330   21332   21329   21327   21330   21333
   21330   21333   21336   21337   21330   21333   21336   21338
   21330   21333   21336   21339   21331   21330   21333   21334
   21331   21330   21333   21335   21331   21330   21333   21336
   21332   21330   21333   21334   21332   21330   21333   21335
   21332   21330   21333   21336   21333   21336   21339   21340
   21333   21336   21339   21341   21333   21336   21339   21342
   21334   21333   21336   21337   21334   21333   21336   21338
   21334   21333   21336   21339   21335   21333   21336   21337
   21335   21333   21336   21338   21335   21333   21336   21339
   21336   21339   21342   21343   21336   21339   21342   21344
   21336   21339   21342   21345   21337   21336   21339   21340
   21337   21336   21339   21341   21337   21336   21339   21342
   21338   21336   21339   21340   21338   21336   21339   21341
   21338   21336   21339   21342   21339   21342   21345   21346
   21339   21342   21345   21347   21339   21342   21345   21348
   21340   21339   21342   21343   21340   21339   21342   21344
   21340   21339   21342   21345   21341   21339   21342   21343
   21341   21339   21342   21344   21341   21339   21342   21345
   21342   21345   21348   21349   21342   21345   21348   21350
   21342   21345   21348   21351   21343   21342   21345   21346
   21343   21342   21345   21347   21343   21342   21345   21348
   21344   21342   21345   21346   21344   21342   21345   21347
   21344   21342   21345   21348   21345   21348   21351   21352
   21345   21348   21351   21353   21345   21348   21351   21354
   21346   21345   21348   21349   21346   21345   21348   21350
   21346   21345   21348   21351   21347   21345   21348   21349
   21347   21345   21348   21350   21347   21345   21348   21351
   21349   21348   21351   21352   21349   21348   21351   21353
   21349   21348   21351   21354   21350   21348   21351   21352
   21350   21348   21351   21353   21350   21348   21351   21354
   21355   21358   21361   21362   21355   21358   21361   21363
   21355   21358   21361   21364   21356   21355   21358   21359
   21356   21355   21358   21360   21356   21355   21358   21361
   21357   21355   21358   21359   21357   21355   21358   21360
   21357   21355   21358   21361   21358   21361   21364   21365
   21358   21361   21364   21366   21358   21361   21364   21367
   21359   21358   21361   21362   21359   21358   21361   21363
   21359   21358   21361   21364   21360   21358   21361   21362
   21360   21358   21361   21363   21360   21358   21361   21364
   21361   21364   21367   21368   21361   21364   21367   21369
   21361   21364   21367   21370   21362   21361   21364   21365
   21362   21361   21364   21366   21362   21361   21364   21367
   21363   21361   21364   21365   21363   21361   21364   21366
   21363   21361   21364   21367   21364   21367   21370   21371
   21364   21367   21370   21372   21364   21367   21370   21373
   21365   21364   21367   21368   21365   21364   21367   21369
   21365   21364   21367   21370   21366   21364   21367   21368
   21366   21364   21367   21369   21366   21364   21367   21370
   21367   21370   21373   21374   21367   21370   21373   21375
   21367   21370   21373   21376   21368   21367   21370   21371
   21368   21367   21370   21372   21368   21367   21370   21373
   21369   21367   21370   21371   21369   21367   21370   21372
   21369   21367   21370   21373   21370   21373   21376   21377
   21370   21373   21376   21378   21370   21373   21376   21379
   21371   21370   21373   21374   21371   21370   21373   21375
   21371   21370   21373   21376   21372   21370   21373   21374
   21372   21370   21373   21375   21372   21370   21373   21376
   21373   21376   21379   21380   21373   21376   21379   21381
   21373   21376   21379   21382   21374   21373   21376   21377
   21374   21373   21376   21378   21374   21373   21376   21379
   21375   21373   21376   21377   21375   21373   21376   21378
   21375   21373   21376   21379   21376   21379   21382   21383
   21376   21379   21382   21384   21376   21379   21382   21385
   21377   21376   21379   21380   21377   21376   21379   21381
   21377   21376   21379   21382   21378   21376   21379   21380
   21378   21376   21379   21381   21378   21376   21379   21382
   21379   21382   21385   21386   21379   21382   21385   21387
   21379   21382   21385   21388   21380   21379   21382   21383
   21380   21379   21382   21384   21380   21379   21382   21385
   21381   21379   21382   21383   21381   21379   21382   21384
   21381   21379   21382   21385   21382   21385   21388   21389
   21382   21385   21388   21390   21382   21385   21388   21391
   21383   21382   21385   21386   21383   21382   21385   21387
   21383   21382   21385   21388   21384   21382   21385   21386
   21384   21382   21385   21387   21384   21382   21385   21388
   21386   21385   21388   21389   21386   21385   21388   21390
   21386   21385   21388   21391   21387   21385   21388   21389
   21387   21385   21388   21390   21387   21385   21388   21391
   21392   21405   21408   21409   21392   21405   21408   21410
   21392   21405   21408   21415   21393   21392   21397   21398
   21393   21392   21397   21399   21393   21392   21397   21400
   21393   21392   21401   21402   21393   21392   21401   21403
   21393   21392   21401   21404   21393   21392   21405   21406
   21393   21392   21405   21407   21393   21392   21405   21408
   21397   21392   21393   21394   21397   21392   21393   21395
   21397   21392   21393   21396   21397   21392   21401   21402
   21397   21392   21401   21403   21397   21392   21401   21404
   21397   21392   21405   21406   21397   21392   21405   21407
   21397   21392   21405   21408   21401   21392   21393   21394
   21401   21392   21393   21395   21401   21392   21393   21396
   21401   21392   21397   21398   21401   21392   21397   21399
   21401   21392   21397   21400   21401   21392   21405   21406
   21401   21392   21405   21407   21401   21392   21405   21408
   21405   21392   21393   21394   21405   21392   21393   21395
   21405   21392   21393   21396   21405   21392   21397   21398
   21405   21392   21397   21399   21405   21392   21397   21400
   21405   21392   21401   21402   21405   21392   21401   21403
   21405   21392   21401   21404   21405   21408   21415   21411
   21406   21405   21408   21409   21406   21405   21408   21410
   21406   21405   21408   21415   21407   21405   21408   21409
   21407   21405   21408   21410   21407   21405   21408   21415
   21409   21408   21415   21411   21410   21408   21415   21411
   21411   21414   21416   21417   21411   21414   21416   21418
   21411   21414   21416   21419   21412   21411   21415   21408
   21412   21411   21414   21416   21413   21411   21415   21408
   21413   21411   21414   21416   21414   21411   21415   21408
   21414   21416   21419   21420   21414   21416   21419   21427
   21414   21416   21419   21421   21415   21411   21414   21416
   21416   21419   21427   21428   21416   21419   21427   21429
   21416   21419   21427   21430   21416   21419   21421   21422
   21417   21416   21419   21420   21417   21416   21419   21427
   21417   21416   21419   21421   21418   21416   21419   21420
   21418   21416   21419   21427   21418   21416   21419   21421
   21419   21427   21430   21431   21419   21421   21422   21424
   21419   21421   21422   21423   21420   21419   21427   21428
   21420   21419   21427   21429   21420   21419   21427   21430
   21420   21419   21421   21422   21421   21422   21424   21425
   21421   21422   21424   21426   21421   21422   21424   21436
   21421   21419   21427   21428   21421   21419   21427   21429
   21421   21419   21427   21430   21422   21424   21436   21437
   21422   21424   21436   21438   21422   21424   21436   21439
   21423   21422   21424   21425   21423   21422   21424   21426
   21423   21422   21424   21436   21424   21436   21439   21440
   21424   21436   21439   21441   21424   21436   21439   21442
   21425   21424   21436   21437   21425   21424   21436   21438
   21425   21424   21436   21439   21426   21424   21436   21437
   21426   21424   21436   21438   21426   21424   21436   21439
   21427   21419   21421   21422   21427   21430   21431   21433
   21427   21430   21431   21432   21428   21427   21430   21431
   21429   21427   21430   21431   21430   21431   21433   21434
   21430   21431   21433   21435   21430   21431   21433   21473
   21431   21433   21473   21474   21431   21433   21473   21475
   21431   21433   21473   21476   21432   21431   21433   21434
   21432   21431   21433   21435   21432   21431   21433   21473
   21433   21473   21476   21477   21433   21473   21476   21478
   21433   21473   21476   21479   21434   21433   21473   21474
   21434   21433   21473   21475   21434   21433   21473   21476
   21435   21433   21473   21474   21435   21433   21473   21475
   21435   21433   21473   21476   21436   21439   21442   21443
   21436   21439   21442   21444   21436   21439   21442   21445
   21437   21436   21439   21440   21437   21436   21439   21441
   21437   21436   21439   21442   21438   21436   21439   21440
   21438   21436   21439   21441   21438   21436   21439   21442
   21439   21442   21445   21446   21439   21442   21445   21447
   21439   21442   21445   21448   21440   21439   21442   21443
   21440   21439   21442   21444   21440   21439   21442   21445
   21441   21439   21442   21443   21441   21439   21442   21444
   21441   21439   21442   21445   21442   21445   21448   21449
   21442   21445   21448   21450   21442   21445   21448   21451
   21443   21442   21445   21446   21443   21442   21445   21447
   21443   21442   21445   21448   21444   21442   21445   21446
   21444   21442   21445   21447   21444   21442   21445   21448
   21445   21448   21451   21452   21445   21448   21451   21453
   21445   21448   21451   21454   21446   21445   21448   21449
   21446   21445   21448   21450   21446   21445   21448   21451
   21447   21445   21448   21449   21447   21445   21448   21450
   21447   21445   21448   21451   21448   21451   21454   21455
   21448   21451   21454   21456   21448   21451   21454   21457
   21449   21448   21451   21452   21449   21448   21451   21453
   21449   21448   21451   21454   21450   21448   21451   21452
   21450   21448   21451   21453   21450   21448   21451   21454
   21451   21454   21457   21458   21451   21454   21457   21459
   21451   21454   21457   21460   21452   21451   21454   21455
   21452   21451   21454   21456   21452   21451   21454   21457
   21453   21451   21454   21455   21453   21451   21454   21456
   21453   21451   21454   21457   21454   21457   21460   21461
   21454   21457   21460   21462   21454   21457   21460   21463
   21455   21454   21457   21458   21455   21454   21457   21459
   21455   21454   21457   21460   21456   21454   21457   21458
   21456   21454   21457   21459   21456   21454   21457   21460
   21457   21460   21463   21464   21457   21460   21463   21465
   21457   21460   21463   21466   21458   21457   21460   21461
   21458   21457   21460   21462   21458   21457   21460   21463
   21459   21457   21460   21461   21459   21457   21460   21462
   21459   21457   21460   21463   21460   21463   21466   21467
   21460   21463   21466   21468   21460   21463   21466   21469
   21461   21460   21463   21464   21461   21460   21463   21465
   21461   21460   21463   21466   21462   21460   21463   21464
   21462   21460   21463   21465   21462   21460   21463   21466
   21463   21466   21469   21470   21463   21466   21469   21471
   21463   21466   21469   21472   21464   21463   21466   21467
   21464   21463   21466   21468   21464   21463   21466   21469
   21465   21463   21466   21467   21465   21463   21466   21468
   21465   21463   21466   21469   21467   21466   21469   21470
   21467   21466   21469   21471   21467   21466   21469   21472
   21468   21466   21469   21470   21468   21466   21469   21471
   21468   21466   21469   21472   21473   21476   21479   21480
   21473   21476   21479   21481   21473   21476   21479   21482
   21474   21473   21476   21477   21474   21473   21476   21478
   21474   21473   21476   21479   21475   21473   21476   21477
   21475   21473   21476   21478   21475   21473   21476   21479
   21476   21479   21482   21483   21476   21479   21482   21484
   21476   21479   21482   21485   21477   21476   21479   21480
   21477   21476   21479   21481   21477   21476   21479   21482
   21478   21476   21479   21480   21478   21476   21479   21481
   21478   21476   21479   21482   21479   21482   21485   21486
   21479   21482   21485   21487   21479   21482   21485   21488
   21480   21479   21482   21483   21480   21479   21482   21484
   21480   21479   21482   21485   21481   21479   21482   21483
   21481   21479   21482   21484   21481   21479   21482   21485
   21482   21485   21488   21489   21482   21485   21488   21490
   21482   21485   21488   21491   21483   21482   21485   21486
   21483   21482   21485   21487   21483   21482   21485   21488
   21484   21482   21485   21486   21484   21482   21485   21487
   21484   21482   21485   21488   21485   21488   21491   21492
   21485   21488   21491   21493   21485   21488   21491   21494
   21486   21485   21488   21489   21486   21485   21488   21490
   21486   21485   21488   21491   21487   21485   21488   21489
   21487   21485   21488   21490   21487   21485   21488   21491
   21488   21491   21494   21495   21488   21491   21494   21496
   21488   21491   21494   21497   21489   21488   21491   21492
   21489   21488   21491   21493   21489   21488   21491   21494
   21490   21488   21491   21492   21490   21488   21491   21493
   21490   21488   21491   21494   21491   21494   21497   21498
   21491   21494   21497   21499   21491   21494   21497   21500
   21492   21491   21494   21495   21492   21491   21494   21496
   21492   21491   21494   21497   21493   21491   21494   21495
   21493   21491   21494   21496   21493   21491   21494   21497
   21494   21497   21500   21501   21494   21497   21500   21502
   21494   21497   21500   21503   21495   21494   21497   21498
   21495   21494   21497   21499   21495   21494   21497   21500
   21496   21494   21497   21498   21496   21494   21497   21499
   21496   21494   21497   21500   21497   21500   21503   21504
   21497   21500   21503   21505   21497   21500   21503   21506
   21498   21497   21500   21501   21498   21497   21500   21502
   21498   21497   21500   21503   21499   21497   21500   21501
   21499   21497   21500   21502   21499   21497   21500   21503
   21500   21503   21506   21507   21500   21503   21506   21508
   21500   21503   21506   21509   21501   21500   21503   21504
   21501   21500   21503   21505   21501   21500   21503   21506
   21502   21500   21503   21504   21502   21500   21503   21505
   21502   21500   21503   21506   21504   21503   21506   21507
   21504   21503   21506   21508   21504   21503   21506   21509
   21505   21503   21506   21507   21505   21503   21506   21508
   21505   21503   21506   21509   21510   21523   21526   21527
   21510   21523   21526   21528   21510   21523   21526   21533
   21511   21510   21515   21516   21511   21510   21515   21517
   21511   21510   21515   21518   21511   21510   21519   21520
   21511   21510   21519   21521   21511   21510   21519   21522
   21511   21510   21523   21524   21511   21510   21523   21525
   21511   21510   21523   21526   21515   21510   21511   21512
   21515   21510   21511   21513   21515   21510   21511   21514
   21515   21510   21519   21520   21515   21510   21519   21521
   21515   21510   21519   21522   21515   21510   21523   21524
   21515   21510   21523   21525   21515   21510   21523   21526
   21519   21510   21511   21512   21519   21510   21511   21513
   21519   21510   21511   21514   21519   21510   21515   21516
   21519   21510   21515   21517   21519   21510   21515   21518
   21519   21510   21523   21524   21519   21510   21523   21525
   21519   21510   21523   21526   21523   21510   21511   21512
   21523   21510   21511   21513   21523   21510   21511   21514
   21523   21510   21515   21516   21523   21510   21515   21517
   21523   21510   21515   21518   21523   21510   21519   21520
   21523   21510   21519   21521   21523   21510   21519   21522
   21523   21526   21533   21529   21524   21523   21526   21527
   21524   21523   21526   21528   21524   21523   21526   21533
   21525   21523   21526   21527   21525   21523   21526   21528
   21525   21523   21526   21533   21527   21526   21533   21529
   21528   21526   21533   21529   21529   21532   21534   21535
   21529   21532   21534   21536   21529   21532   21534   21537
   21530   21529   21533   21526   21530   21529   21532   21534
   21531   21529   21533   21526   21531   21529   21532   21534
   21532   21529   21533   21526   21532   21534   21537   21538
   21532   21534   21537   21545   21532   21534   21537   21539
   21533   21529   21532   21534   21534   21537   21545   21546
   21534   21537   21545   21547   21534   21537   21545   21548
   21534   21537   21539   21540   21535   21534   21537   21538
   21535   21534   21537   21545   21535   21534   21537   21539
   21536   21534   21537   21538   21536   21534   21537   21545
   21536   21534   21537   21539   21537   21545   21548   21549
   21537   21539   21540   21542   21537   21539   21540   21541
   21538   21537   21545   21546   21538   21537   21545   21547
   21538   21537   21545   21548   21538   21537   21539   21540
   21539   21540   21542   21543   21539   21540   21542   21544
   21539   21540   21542   21554   21539   21537   21545   21546
   21539   21537   21545   21547   21539   21537   21545   21548
   21540   21542   21554   21555   21540   21542   21554   21556
   21540   21542   21554   21557   21541   21540   21542   21543
   21541   21540   21542   21544   21541   21540   21542   21554
   21542   21554   21557   21558   21542   21554   21557   21559
   21542   21554   21557   21560   21543   21542   21554   21555
   21543   21542   21554   21556   21543   21542   21554   21557
   21544   21542   21554   21555   21544   21542   21554   21556
   21544   21542   21554   21557   21545   21537   21539   21540
   21545   21548   21549   21551   21545   21548   21549   21550
   21546   21545   21548   21549   21547   21545   21548   21549
   21548   21549   21551   21552   21548   21549   21551   21553
   21548   21549   21551   21591   21549   21551   21591   21592
   21549   21551   21591   21593   21549   21551   21591   21594
   21550   21549   21551   21552   21550   21549   21551   21553
   21550   21549   21551   21591   21551   21591   21594   21595
   21551   21591   21594   21596   21551   21591   21594   21597
   21552   21551   21591   21592   21552   21551   21591   21593
   21552   21551   21591   21594   21553   21551   21591   21592
   21553   21551   21591   21593   21553   21551   21591   21594
   21554   21557   21560   21561   21554   21557   21560   21562
   21554   21557   21560   21563   21555   21554   21557   21558
   21555   21554   21557   21559   21555   21554   21557   21560
   21556   21554   21557   21558   21556   21554   21557   21559
   21556   21554   21557   21560   21557   21560   21563   21564
   21557   21560   21563   21565   21557   21560   21563   21566
   21558   21557   21560   21561   21558   21557   21560   21562
   21558   21557   21560   21563   21559   21557   21560   21561
   21559   21557   21560   21562   21559   21557   21560   21563
   21560   21563   21566   21567   21560   21563   21566   21568
   21560   21563   21566   21569   21561   21560   21563   21564
   21561   21560   21563   21565   21561   21560   21563   21566
   21562   21560   21563   21564   21562   21560   21563   21565
   21562   21560   21563   21566   21563   21566   21569   21570
   21563   21566   21569   21571   21563   21566   21569   21572
   21564   21563   21566   21567   21564   21563   21566   21568
   21564   21563   21566   21569   21565   21563   21566   21567
   21565   21563   21566   21568   21565   21563   21566   21569
   21566   21569   21572   21573   21566   21569   21572   21574
   21566   21569   21572   21575   21567   21566   21569   21570
   21567   21566   21569   21571   21567   21566   21569   21572
   21568   21566   21569   21570   21568   21566   21569   21571
   21568   21566   21569   21572   21569   21572   21575   21576
   21569   21572   21575   21577   21569   21572   21575   21578
   21570   21569   21572   21573   21570   21569   21572   21574
   21570   21569   21572   21575   21571   21569   21572   21573
   21571   21569   21572   21574   21571   21569   21572   21575
   21572   21575   21578   21579   21572   21575   21578   21580
   21572   21575   21578   21581   21573   21572   21575   21576
   21573   21572   21575   21577   21573   21572   21575   21578
   21574   21572   21575   21576   21574   21572   21575   21577
   21574   21572   21575   21578   21575   21578   21581   21582
   21575   21578   21581   21583   21575   21578   21581   21584
   21576   21575   21578   21579   21576   21575   21578   21580
   21576   21575   21578   21581   21577   21575   21578   21579
   21577   21575   21578   21580   21577   21575   21578   21581
   21578   21581   21584   21585   21578   21581   21584   21586
   21578   21581   21584   21587   21579   21578   21581   21582
   21579   21578   21581   21583   21579   21578   21581   21584
   21580   21578   21581   21582   21580   21578   21581   21583
   21580   21578   21581   21584   21581   21584   21587   21588
   21581   21584   21587   21589   21581   21584   21587   21590
   21582   21581   21584   21585   21582   21581   21584   21586
   21582   21581   21584   21587   21583   21581   21584   21585
   21583   21581   21584   21586   21583   21581   21584   21587
   21585   21584   21587   21588   21585   21584   21587   21589
   21585   21584   21587   21590   21586   21584   21587   21588
   21586   21584   21587   21589   21586   21584   21587   21590
   21591   21594   21597   21598   21591   21594   21597   21599
   21591   21594   21597   21600   21592   21591   21594   21595
   21592   21591   21594   21596   21592   21591   21594   21597
   21593   21591   21594   21595   21593   21591   21594   21596
   21593   21591   21594   21597   21594   21597   21600   21601
   21594   21597   21600   21602   21594   21597   21600   21603
   21595   21594   21597   21598   21595   21594   21597   21599
   21595   21594   21597   21600   21596   21594   21597   21598
   21596   21594   21597   21599   21596   21594   21597   21600
   21597   21600   21603   21604   21597   21600   21603   21605
   21597   21600   21603   21606   21598   21597   21600   21601
   21598   21597   21600   21602   21598   21597   21600   21603
   21599   21597   21600   21601   21599   21597   21600   21602
   21599   21597   21600   21603   21600   21603   21606   21607
   21600   21603   21606   21608   21600   21603   21606   21609
   21601   21600   21603   21604   21601   21600   21603   21605
   21601   21600   21603   21606   21602   21600   21603   21604
   21602   21600   21603   21605   21602   21600   21603   21606
   21603   21606   21609   21610   21603   21606   21609   21611
   21603   21606   21609   21612   21604   21603   21606   21607
   21604   21603   21606   21608   21604   21603   21606   21609
   21605   21603   21606   21607   21605   21603   21606   21608
   21605   21603   21606   21609   21606   21609   21612   21613
   21606   21609   21612   21614   21606   21609   21612   21615
   21607   21606   21609   21610   21607   21606   21609   21611
   21607   21606   21609   21612   21608   21606   21609   21610
   21608   21606   21609   21611   21608   21606   21609   21612
   21609   21612   21615   21616   21609   21612   21615   21617
   21609   21612   21615   21618   21610   21609   21612   21613
   21610   21609   21612   21614   21610   21609   21612   21615
   21611   21609   21612   21613   21611   21609   21612   21614
   21611   21609   21612   21615   21612   21615   21618   21619
   21612   21615   21618   21620   21612   21615   21618   21621
   21613   21612   21615   21616   21613   21612   21615   21617
   21613   21612   21615   21618   21614   21612   21615   21616
   21614   21612   21615   21617   21614   21612   21615   21618
   21615   21618   21621   21622   21615   21618   21621   21623
   21615   21618   21621   21624   21616   21615   21618   21619
   21616   21615   21618   21620   21616   21615   21618   21621
   21617   21615   21618   21619   21617   21615   21618   21620
   21617   21615   21618   21621   21618   21621   21624   21625
   21618   21621   21624   21626   21618   21621   21624   21627
   21619   21618   21621   21622   21619   21618   21621   21623
   21619   21618   21621   21624   21620   21618   21621   21622
   21620   21618   21621   21623   21620   21618   21621   21624
   21622   21621   21624   21625   21622   21621   21624   21626
   21622   21621   21624   21627   21623   21621   21624   21625
   21623   21621   21624   21626   21623   21621   21624   21627
   21628   21641   21644   21645   21628   21641   21644   21646
   21628   21641   21644   21651   21629   21628   21633   21634
   21629   21628   21633   21635   21629   21628   21633   21636
   21629   21628   21637   21638   21629   21628   21637   21639
   21629   21628   21637   21640   21629   21628   21641   21642
   21629   21628   21641   21643   21629   21628   21641   21644
   21633   21628   21629   21630   21633   21628   21629   21631
   21633   21628   21629   21632   21633   21628   21637   21638
   21633   21628   21637   21639   21633   21628   21637   21640
   21633   21628   21641   21642   21633   21628   21641   21643
   21633   21628   21641   21644   21637   21628   21629   21630
   21637   21628   21629   21631   21637   21628   21629   21632
   21637   21628   21633   21634   21637   21628   21633   21635
   21637   21628   21633   21636   21637   21628   21641   21642
   21637   21628   21641   21643   21637   21628   21641   21644
   21641   21628   21629   21630   21641   21628   21629   21631
   21641   21628   21629   21632   21641   21628   21633   21634
   21641   21628   21633   21635   21641   21628   21633   21636
   21641   21628   21637   21638   21641   21628   21637   21639
   21641   21628   21637   21640   21641   21644   21651   21647
   21642   21641   21644   21645   21642   21641   21644   21646
   21642   21641   21644   21651   21643   21641   21644   21645
   21643   21641   21644   21646   21643   21641   21644   21651
   21645   21644   21651   21647   21646   21644   21651   21647
   21647   21650   21652   21653   21647   21650   21652   21654
   21647   21650   21652   21655   21648   21647   21651   21644
   21648   21647   21650   21652   21649   21647   21651   21644
   21649   21647   21650   21652   21650   21647   21651   21644
   21650   21652   21655   21656   21650   21652   21655   21663
   21650   21652   21655   21657   21651   21647   21650   21652
   21652   21655   21663   21664   21652   21655   21663   21665
   21652   21655   21663   21666   21652   21655   21657   21658
   21653   21652   21655   21656   21653   21652   21655   21663
   21653   21652   21655   21657   21654   21652   21655   21656
   21654   21652   21655   21663   21654   21652   21655   21657
   21655   21663   21666   21667   21655   21657   21658   21660
   21655   21657   21658   21659   21656   21655   21663   21664
   21656   21655   21663   21665   21656   21655   21663   21666
   21656   21655   21657   21658   21657   21658   21660   21661
   21657   21658   21660   21662   21657   21658   21660   21672
   21657   21655   21663   21664   21657   21655   21663   21665
   21657   21655   21663   21666   21658   21660   21672   21673
   21658   21660   21672   21674   21658   21660   21672   21675
   21659   21658   21660   21661   21659   21658   21660   21662
   21659   21658   21660   21672   21660   21672   21675   21676
   21660   21672   21675   21677   21660   21672   21675   21678
   21661   21660   21672   21673   21661   21660   21672   21674
   21661   21660   21672   21675   21662   21660   21672   21673
   21662   21660   21672   21674   21662   21660   21672   21675
   21663   21655   21657   21658   21663   21666   21667   21669
   21663   21666   21667   21668   21664   21663   21666   21667
   21665   21663   21666   21667   21666   21667   21669   21670
   21666   21667   21669   21671   21666   21667   21669   21709
   21667   21669   21709   21710   21667   21669   21709   21711
   21667   21669   21709   21712   21668   21667   21669   21670
   21668   21667   21669   21671   21668   21667   21669   21709
   21669   21709   21712   21713   21669   21709   21712   21714
   21669   21709   21712   21715   21670   21669   21709   21710
   21670   21669   21709   21711   21670   21669   21709   21712
   21671   21669   21709   21710   21671   21669   21709   21711
   21671   21669   21709   21712   21672   21675   21678   21679
   21672   21675   21678   21680   21672   21675   21678   21681
   21673   21672   21675   21676   21673   21672   21675   21677
   21673   21672   21675   21678   21674   21672   21675   21676
   21674   21672   21675   21677   21674   21672   21675   21678
   21675   21678   21681   21682   21675   21678   21681   21683
   21675   21678   21681   21684   21676   21675   21678   21679
   21676   21675   21678   21680   21676   21675   21678   21681
   21677   21675   21678   21679   21677   21675   21678   21680
   21677   21675   21678   21681   21678   21681   21684   21685
   21678   21681   21684   21686   21678   21681   21684   21687
   21679   21678   21681   21682   21679   21678   21681   21683
   21679   21678   21681   21684   21680   21678   21681   21682
   21680   21678   21681   21683   21680   21678   21681   21684
   21681   21684   21687   21688   21681   21684   21687   21689
   21681   21684   21687   21690   21682   21681   21684   21685
   21682   21681   21684   21686   21682   21681   21684   21687
   21683   21681   21684   21685   21683   21681   21684   21686
   21683   21681   21684   21687   21684   21687   21690   21691
   21684   21687   21690   21692   21684   21687   21690   21693
   21685   21684   21687   21688   21685   21684   21687   21689
   21685   21684   21687   21690   21686   21684   21687   21688
   21686   21684   21687   21689   21686   21684   21687   21690
   21687   21690   21693   21694   21687   21690   21693   21695
   21687   21690   21693   21696   21688   21687   21690   21691
   21688   21687   21690   21692   21688   21687   21690   21693
   21689   21687   21690   21691   21689   21687   21690   21692
   21689   21687   21690   21693   21690   21693   21696   21697
   21690   21693   21696   21698   21690   21693   21696   21699
   21691   21690   21693   21694   21691   21690   21693   21695
   21691   21690   21693   21696   21692   21690   21693   21694
   21692   21690   21693   21695   21692   21690   21693   21696
   21693   21696   21699   21700   21693   21696   21699   21701
   21693   21696   21699   21702   21694   21693   21696   21697
   21694   21693   21696   21698   21694   21693   21696   21699
   21695   21693   21696   21697   21695   21693   21696   21698
   21695   21693   21696   21699   21696   21699   21702   21703
   21696   21699   21702   21704   21696   21699   21702   21705
   21697   21696   21699   21700   21697   21696   21699   21701
   21697   21696   21699   21702   21698   21696   21699   21700
   21698   21696   21699   21701   21698   21696   21699   21702
   21699   21702   21705   21706   21699   21702   21705   21707
   21699   21702   21705   21708   21700   21699   21702   21703
   21700   21699   21702   21704   21700   21699   21702   21705
   21701   21699   21702   21703   21701   21699   21702   21704
   21701   21699   21702   21705   21703   21702   21705   21706
   21703   21702   21705   21707   21703   21702   21705   21708
   21704   21702   21705   21706   21704   21702   21705   21707
   21704   21702   21705   21708   21709   21712   21715   21716
   21709   21712   21715   21717   21709   21712   21715   21718
   21710   21709   21712   21713   21710   21709   21712   21714
   21710   21709   21712   21715   21711   21709   21712   21713
   21711   21709   21712   21714   21711   21709   21712   21715
   21712   21715   21718   21719   21712   21715   21718   21720
   21712   21715   21718   21721   21713   21712   21715   21716
   21713   21712   21715   21717   21713   21712   21715   21718
   21714   21712   21715   21716   21714   21712   21715   21717
   21714   21712   21715   21718   21715   21718   21721   21722
   21715   21718   21721   21723   21715   21718   21721   21724
   21716   21715   21718   21719   21716   21715   21718   21720
   21716   21715   21718   21721   21717   21715   21718   21719
   21717   21715   21718   21720   21717   21715   21718   21721
   21718   21721   21724   21725   21718   21721   21724   21726
   21718   21721   21724   21727   21719   21718   21721   21722
   21719   21718   21721   21723   21719   21718   21721   21724
   21720   21718   21721   21722   21720   21718   21721   21723
   21720   21718   21721   21724   21721   21724   21727   21728
   21721   21724   21727   21729   21721   21724   21727   21730
   21722   21721   21724   21725   21722   21721   21724   21726
   21722   21721   21724   21727   21723   21721   21724   21725
   21723   21721   21724   21726   21723   21721   21724   21727
   21724   21727   21730   21731   21724   21727   21730   21732
   21724   21727   21730   21733   21725   21724   21727   21728
   21725   21724   21727   21729   21725   21724   21727   21730
   21726   21724   21727   21728   21726   21724   21727   21729
   21726   21724   21727   21730   21727   21730   21733   21734
   21727   21730   21733   21735   21727   21730   21733   21736
   21728   21727   21730   21731   21728   21727   21730   21732
   21728   21727   21730   21733   21729   21727   21730   21731
   21729   21727   21730   21732   21729   21727   21730   21733
   21730   21733   21736   21737   21730   21733   21736   21738
   21730   21733   21736   21739   21731   21730   21733   21734
   21731   21730   21733   21735   21731   21730   21733   21736
   21732   21730   21733   21734   21732   21730   21733   21735
   21732   21730   21733   21736   21733   21736   21739   21740
   21733   21736   21739   21741   21733   21736   21739   21742
   21734   21733   21736   21737   21734   21733   21736   21738
   21734   21733   21736   21739   21735   21733   21736   21737
   21735   21733   21736   21738   21735   21733   21736   21739
   21736   21739   21742   21743   21736   21739   21742   21744
   21736   21739   21742   21745   21737   21736   21739   21740
   21737   21736   21739   21741   21737   21736   21739   21742
   21738   21736   21739   21740   21738   21736   21739   21741
   21738   21736   21739   21742   21740   21739   21742   21743
   21740   21739   21742   21744   21740   21739   21742   21745
   21741   21739   21742   21743   21741   21739   21742   21744
   21741   21739   21742   21745   21746   21759   21762   21763
   21746   21759   21762   21764   21746   21759   21762   21769
   21747   21746   21751   21752   21747   21746   21751   21753
   21747   21746   21751   21754   21747   21746   21755   21756
   21747   21746   21755   21757   21747   21746   21755   21758
   21747   21746   21759   21760   21747   21746   21759   21761
   21747   21746   21759   21762   21751   21746   21747   21748
   21751   21746   21747   21749   21751   21746   21747   21750
   21751   21746   21755   21756   21751   21746   21755   21757
   21751   21746   21755   21758   21751   21746   21759   21760
   21751   21746   21759   21761   21751   21746   21759   21762
   21755   21746   21747   21748   21755   21746   21747   21749
   21755   21746   21747   21750   21755   21746   21751   21752
   21755   21746   21751   21753   21755   21746   21751   21754
   21755   21746   21759   21760   21755   21746   21759   21761
   21755   21746   21759   21762   21759   21746   21747   21748
   21759   21746   21747   21749   21759   21746   21747   21750
   21759   21746   21751   21752   21759   21746   21751   21753
   21759   21746   21751   21754   21759   21746   21755   21756
   21759   21746   21755   21757   21759   21746   21755   21758
   21759   21762   21769   21765   21760   21759   21762   21763
   21760   21759   21762   21764   21760   21759   21762   21769
   21761   21759   21762   21763   21761   21759   21762   21764
   21761   21759   21762   21769   21763   21762   21769   21765
   21764   21762   21769   21765   21765   21768   21770   21771
   21765   21768   21770   21772   21765   21768   21770   21773
   21766   21765   21769   21762   21766   21765   21768   21770
   21767   21765   21769   21762   21767   21765   21768   21770
   21768   21765   21769   21762   21768   21770   21773   21774
   21768   21770   21773   21781   21768   21770   21773   21775
   21769   21765   21768   21770   21770   21773   21781   21782
   21770   21773   21781   21783   21770   21773   21781   21784
   21770   21773   21775   21776   21771   21770   21773   21774
   21771   21770   21773   21781   21771   21770   21773   21775
   21772   21770   21773   21774   21772   21770   21773   21781
   21772   21770   21773   21775   21773   21781   21784   21785
   21773   21775   21776   21778   21773   21775   21776   21777
   21774   21773   21781   21782   21774   21773   21781   21783
   21774   21773   21781   21784   21774   21773   21775   21776
   21775   21776   21778   21779   21775   21776   21778   21780
   21775   21776   21778   21790   21775   21773   21781   21782
   21775   21773   21781   21783   21775   21773   21781   21784
   21776   21778   21790   21791   21776   21778   21790   21792
   21776   21778   21790   21793   21777   21776   21778   21779
   21777   21776   21778   21780   21777   21776   21778   21790
   21778   21790   21793   21794   21778   21790   21793   21795
   21778   21790   21793   21796   21779   21778   21790   21791
   21779   21778   21790   21792   21779   21778   21790   21793
   21780   21778   21790   21791   21780   21778   21790   21792
   21780   21778   21790   21793   21781   21773   21775   21776
   21781   21784   21785   21787   21781   21784   21785   21786
   21782   21781   21784   21785   21783   21781   21784   21785
   21784   21785   21787   21788   21784   21785   21787   21789
   21784   21785   21787   21827   21785   21787   21827   21828
   21785   21787   21827   21829   21785   21787   21827   21830
   21786   21785   21787   21788   21786   21785   21787   21789
   21786   21785   21787   21827   21787   21827   21830   21831
   21787   21827   21830   21832   21787   21827   21830   21833
   21788   21787   21827   21828   21788   21787   21827   21829
   21788   21787   21827   21830   21789   21787   21827   21828
   21789   21787   21827   21829   21789   21787   21827   21830
   21790   21793   21796   21797   21790   21793   21796   21798
   21790   21793   21796   21799   21791   21790   21793   21794
   21791   21790   21793   21795   21791   21790   21793   21796
   21792   21790   21793   21794   21792   21790   21793   21795
   21792   21790   21793   21796   21793   21796   21799   21800
   21793   21796   21799   21801   21793   21796   21799   21802
   21794   21793   21796   21797   21794   21793   21796   21798
   21794   21793   21796   21799   21795   21793   21796   21797
   21795   21793   21796   21798   21795   21793   21796   21799
   21796   21799   21802   21803   21796   21799   21802   21804
   21796   21799   21802   21805   21797   21796   21799   21800
   21797   21796   21799   21801   21797   21796   21799   21802
   21798   21796   21799   21800   21798   21796   21799   21801
   21798   21796   21799   21802   21799   21802   21805   21806
   21799   21802   21805   21807   21799   21802   21805   21808
   21800   21799   21802   21803   21800   21799   21802   21804
   21800   21799   21802   21805   21801   21799   21802   21803
   21801   21799   21802   21804   21801   21799   21802   21805
   21802   21805   21808   21809   21802   21805   21808   21810
   21802   21805   21808   21811   21803   21802   21805   21806
   21803   21802   21805   21807   21803   21802   21805   21808
   21804   21802   21805   21806   21804   21802   21805   21807
   21804   21802   21805   21808   21805   21808   21811   21812
   21805   21808   21811   21813   21805   21808   21811   21814
   21806   21805   21808   21809   21806   21805   21808   21810
   21806   21805   21808   21811   21807   21805   21808   21809
   21807   21805   21808   21810   21807   21805   21808   21811
   21808   21811   21814   21815   21808   21811   21814   21816
   21808   21811   21814   21817   21809   21808   21811   21812
   21809   21808   21811   21813   21809   21808   21811   21814
   21810   21808   21811   21812   21810   21808   21811   21813
   21810   21808   21811   21814   21811   21814   21817   21818
   21811   21814   21817   21819   21811   21814   21817   21820
   21812   21811   21814   21815   21812   21811   21814   21816
   21812   21811   21814   21817   21813   21811   21814   21815
   21813   21811   21814   21816   21813   21811   21814   21817
   21814   21817   21820   21821   21814   21817   21820   21822
   21814   21817   21820   21823   21815   21814   21817   21818
   21815   21814   21817   21819   21815   21814   21817   21820
   21816   21814   21817   21818   21816   21814   21817   21819
   21816   21814   21817   21820   21817   21820   21823   21824
   21817   21820   21823   21825   21817   21820   21823   21826
   21818   21817   21820   21821   21818   21817   21820   21822
   21818   21817   21820   21823   21819   21817   21820   21821
   21819   21817   21820   21822   21819   21817   21820   21823
   21821   21820   21823   21824   21821   21820   21823   21825
   21821   21820   21823   21826   21822   21820   21823   21824
   21822   21820   21823   21825   21822   21820   21823   21826
   21827   21830   21833   21834   21827   21830   21833   21835
   21827   21830   21833   21836   21828   21827   21830   21831
   21828   21827   21830   21832   21828   21827   21830   21833
   21829   21827   21830   21831   21829   21827   21830   21832
   21829   21827   21830   21833   21830   21833   21836   21837
   21830   21833   21836   21838   21830   21833   21836   21839
   21831   21830   21833   21834   21831   21830   21833   21835
   21831   21830   21833   21836   21832   21830   21833   21834
   21832   21830   21833   21835   21832   21830   21833   21836
   21833   21836   21839   21840   21833   21836   21839   21841
   21833   21836   21839   21842   21834   21833   21836   21837
   21834   21833   21836   21838   21834   21833   21836   21839
   21835   21833   21836   21837   21835   21833   21836   21838
   21835   21833   21836   21839   21836   21839   21842   21843
   21836   21839   21842   21844   21836   21839   21842   21845
   21837   21836   21839   21840   21837   21836   21839   21841
   21837   21836   21839   21842   21838   21836   21839   21840
   21838   21836   21839   21841   21838   21836   21839   21842
   21839   21842   21845   21846   21839   21842   21845   21847
   21839   21842   21845   21848   21840   21839   21842   21843
   21840   21839   21842   21844   21840   21839   21842   21845
   21841   21839   21842   21843   21841   21839   21842   21844
   21841   21839   21842   21845   21842   21845   21848   21849
   21842   21845   21848   21850   21842   21845   21848   21851
   21843   21842   21845   21846   21843   21842   21845   21847
   21843   21842   21845   21848   21844   21842   21845   21846
   21844   21842   21845   21847   21844   21842   21845   21848
   21845   21848   21851   21852   21845   21848   21851   21853
   21845   21848   21851   21854   21846   21845   21848   21849
   21846   21845   21848   21850   21846   21845   21848   21851
   21847   21845   21848   21849   21847   21845   21848   21850
   21847   21845   21848   21851   21848   21851   21854   21855
   21848   21851   21854   21856   21848   21851   21854   21857
   21849   21848   21851   21852   21849   21848   21851   21853
   21849   21848   21851   21854   21850   21848   21851   21852
   21850   21848   21851   21853   21850   21848   21851   21854
   21851   21854   21857   21858   21851   21854   21857   21859
   21851   21854   21857   21860   21852   21851   21854   21855
   21852   21851   21854   21856   21852   21851   21854   21857
   21853   21851   21854   21855   21853   21851   21854   21856
   21853   21851   21854   21857   21854   21857   21860   21861
   21854   21857   21860   21862   21854   21857   21860   21863
   21855   21854   21857   21858   21855   21854   21857   21859
   21855   21854   21857   21860   21856   21854   21857   21858
   21856   21854   21857   21859   21856   21854   21857   21860
   21858   21857   21860   21861   21858   21857   21860   21862
   21858   21857   21860   21863   21859   21857   21860   21861
   21859   21857   21860   21862   21859   21857   21860   21863
   21864   21877   21880   21881   21864   21877   21880   21882
   21864   21877   21880   21887   21865   21864   21869   21870
   21865   21864   21869   21871   21865   21864   21869   21872
   21865   21864   21873   21874   21865   21864   21873   21875
   21865   21864   21873   21876   21865   21864   21877   21878
   21865   21864   21877   21879   21865   21864   21877   21880
   21869   21864   21865   21866   21869   21864   21865   21867
   21869   21864   21865   21868   21869   21864   21873   21874
   21869   21864   21873   21875   21869   21864   21873   21876
   21869   21864   21877   21878   21869   21864   21877   21879
   21869   21864   21877   21880   21873   21864   21865   21866
   21873   21864   21865   21867   21873   21864   21865   21868
   21873   21864   21869   21870   21873   21864   21869   21871
   21873   21864   21869   21872   21873   21864   21877   21878
   21873   21864   21877   21879   21873   21864   21877   21880
   21877   21864   21865   21866   21877   21864   21865   21867
   21877   21864   21865   21868   21877   21864   21869   21870
   21877   21864   21869   21871   21877   21864   21869   21872
   21877   21864   21873   21874   21877   21864   21873   21875
   21877   21864   21873   21876   21877   21880   21887   21883
   21878   21877   21880   21881   21878   21877   21880   21882
   21878   21877   21880   21887   21879   21877   21880   21881
   21879   21877   21880   21882   21879   21877   21880   21887
   21881   21880   21887   21883   21882   21880   21887   21883
   21883   21886   21888   21889   21883   21886   21888   21890
   21883   21886   21888   21891   21884   21883   21887   21880
   21884   21883   21886   21888   21885   21883   21887   21880
   21885   21883   21886   21888   21886   21883   21887   21880
   21886   21888   21891   21892   21886   21888   21891   21899
   21886   21888   21891   21893   21887   21883   21886   21888
   21888   21891   21899   21900   21888   21891   21899   21901
   21888   21891   21899   21902   21888   21891   21893   21894
   21889   21888   21891   21892   21889   21888   21891   21899
   21889   21888   21891   21893   21890   21888   21891   21892
   21890   21888   21891   21899   21890   21888   21891   21893
   21891   21899   21902   21903   21891   21893   21894   21896
   21891   21893   21894   21895   21892   21891   21899   21900
   21892   21891   21899   21901   21892   21891   21899   21902
   21892   21891   21893   21894   21893   21894   21896   21897
   21893   21894   21896   21898   21893   21894   21896   21908
   21893   21891   21899   21900   21893   21891   21899   21901
   21893   21891   21899   21902   21894   21896   21908   21909
   21894   21896   21908   21910   21894   21896   21908   21911
   21895   21894   21896   21897   21895   21894   21896   21898
   21895   21894   21896   21908   21896   21908   21911   21912
   21896   21908   21911   21913   21896   21908   21911   21914
   21897   21896   21908   21909   21897   21896   21908   21910
   21897   21896   21908   21911   21898   21896   21908   21909
   21898   21896   21908   21910   21898   21896   21908   21911
   21899   21891   21893   21894   21899   21902   21903   21905
   21899   21902   21903   21904   21900   21899   21902   21903
   21901   21899   21902   21903   21902   21903   21905   21906
   21902   21903   21905   21907   21902   21903   21905   21945
   21903   21905   21945   21946   21903   21905   21945   21947
   21903   21905   21945   21948   21904   21903   21905   21906
   21904   21903   21905   21907   21904   21903   21905   21945
   21905   21945   21948   21949   21905   21945   21948   21950
   21905   21945   21948   21951   21906   21905   21945   21946
   21906   21905   21945   21947   21906   21905   21945   21948
   21907   21905   21945   21946   21907   21905   21945   21947
   21907   21905   21945   21948   21908   21911   21914   21915
   21908   21911   21914   21916   21908   21911   21914   21917
   21909   21908   21911   21912   21909   21908   21911   21913
   21909   21908   21911   21914   21910   21908   21911   21912
   21910   21908   21911   21913   21910   21908   21911   21914
   21911   21914   21917   21918   21911   21914   21917   21919
   21911   21914   21917   21920   21912   21911   21914   21915
   21912   21911   21914   21916   21912   21911   21914   21917
   21913   21911   21914   21915   21913   21911   21914   21916
   21913   21911   21914   21917   21914   21917   21920   21921
   21914   21917   21920   21922   21914   21917   21920   21923
   21915   21914   21917   21918   21915   21914   21917   21919
   21915   21914   21917   21920   21916   21914   21917   21918
   21916   21914   21917   21919   21916   21914   21917   21920
   21917   21920   21923   21924   21917   21920   21923   21925
   21917   21920   21923   21926   21918   21917   21920   21921
   21918   21917   21920   21922   21918   21917   21920   21923
   21919   21917   21920   21921   21919   21917   21920   21922
   21919   21917   21920   21923   21920   21923   21926   21927
   21920   21923   21926   21928   21920   21923   21926   21929
   21921   21920   21923   21924   21921   21920   21923   21925
   21921   21920   21923   21926   21922   21920   21923   21924
   21922   21920   21923   21925   21922   21920   21923   21926
   21923   21926   21929   21930   21923   21926   21929   21931
   21923   21926   21929   21932   21924   21923   21926   21927
   21924   21923   21926   21928   21924   21923   21926   21929
   21925   21923   21926   21927   21925   21923   21926   21928
   21925   21923   21926   21929   21926   21929   21932   21933
   21926   21929   21932   21934   21926   21929   21932   21935
   21927   21926   21929   21930   21927   21926   21929   21931
   21927   21926   21929   21932   21928   21926   21929   21930
   21928   21926   21929   21931   21928   21926   21929   21932
   21929   21932   21935   21936   21929   21932   21935   21937
   21929   21932   21935   21938   21930   21929   21932   21933
   21930   21929   21932   21934   21930   21929   21932   21935
   21931   21929   21932   21933   21931   21929   21932   21934
   21931   21929   21932   21935   21932   21935   21938   21939
   21932   21935   21938   21940   21932   21935   21938   21941
   21933   21932   21935   21936   21933   21932   21935   21937
   21933   21932   21935   21938   21934   21932   21935   21936
   21934   21932   21935   21937   21934   21932   21935   21938
   21935   21938   21941   21942   21935   21938   21941   21943
   21935   21938   21941   21944   21936   21935   21938   21939
   21936   21935   21938   21940   21936   21935   21938   21941
   21937   21935   21938   21939   21937   21935   21938   21940
   21937   21935   21938   21941   21939   21938   21941   21942
   21939   21938   21941   21943   21939   21938   21941   21944
   21940   21938   21941   21942   21940   21938   21941   21943
   21940   21938   21941   21944   21945   21948   21951   21952
   21945   21948   21951   21953   21945   21948   21951   21954
   21946   21945   21948   21949   21946   21945   21948   21950
   21946   21945   21948   21951   21947   21945   21948   21949
   21947   21945   21948   21950   21947   21945   21948   21951
   21948   21951   21954   21955   21948   21951   21954   21956
   21948   21951   21954   21957   21949   21948   21951   21952
   21949   21948   21951   21953   21949   21948   21951   21954
   21950   21948   21951   21952   21950   21948   21951   21953
   21950   21948   21951   21954   21951   21954   21957   21958
   21951   21954   21957   21959   21951   21954   21957   21960
   21952   21951   21954   21955   21952   21951   21954   21956
   21952   21951   21954   21957   21953   21951   21954   21955
   21953   21951   21954   21956   21953   21951   21954   21957
   21954   21957   21960   21961   21954   21957   21960   21962
   21954   21957   21960   21963   21955   21954   21957   21958
   21955   21954   21957   21959   21955   21954   21957   21960
   21956   21954   21957   21958   21956   21954   21957   21959
   21956   21954   21957   21960   21957   21960   21963   21964
   21957   21960   21963   21965   21957   21960   21963   21966
   21958   21957   21960   21961   21958   21957   21960   21962
   21958   21957   21960   21963   21959   21957   21960   21961
   21959   21957   21960   21962   21959   21957   21960   21963
   21960   21963   21966   21967   21960   21963   21966   21968
   21960   21963   21966   21969   21961   21960   21963   21964
   21961   21960   21963   21965   21961   21960   21963   21966
   21962   21960   21963   21964   21962   21960   21963   21965
   21962   21960   21963   21966   21963   21966   21969   21970
   21963   21966   21969   21971   21963   21966   21969   21972
   21964   21963   21966   21967   21964   21963   21966   21968
   21964   21963   21966   21969   21965   21963   21966   21967
   21965   21963   21966   21968   21965   21963   21966   21969
   21966   21969   21972   21973   21966   21969   21972   21974
   21966   21969   21972   21975   21967   21966   21969   21970
   21967   21966   21969   21971   21967   21966   21969   21972
   21968   21966   21969   21970   21968   21966   21969   21971
   21968   21966   21969   21972   21969   21972   21975   21976
   21969   21972   21975   21977   21969   21972   21975   21978
   21970   21969   21972   21973   21970   21969   21972   21974
   21970   21969   21972   21975   21971   21969   21972   21973
   21971   21969   21972   21974   21971   21969   21972   21975
   21972   21975   21978   21979   21972   21975   21978   21980
   21972   21975   21978   21981   21973   21972   21975   21976
   21973   21972   21975   21977   21973   21972   21975   21978
   21974   21972   21975   21976   21974   21972   21975   21977
   21974   21972   21975   21978   21976   21975   21978   21979
   21976   21975   21978   21980   21976   21975   21978   21981
   21977   21975   21978   21979   21977   21975   21978   21980
   21977   21975   21978   21981   21982   21995   21998   21999
   21982   21995   21998   22000   21982   21995   21998   22005
   21983   21982   21987   21988   21983   21982   21987   21989
   21983   21982   21987   21990   21983   21982   21991   21992
   21983   21982   21991   21993   21983   21982   21991   21994
   21983   21982   21995   21996   21983   21982   21995   21997
   21983   21982   21995   21998   21987   21982   21983   21984
   21987   21982   21983   21985   21987   21982   21983   21986
   21987   21982   21991   21992   21987   21982   21991   21993
   21987   21982   21991   21994   21987   21982   21995   21996
   21987   21982   21995   21997   21987   21982   21995   21998
   21991   21982   21983   21984   21991   21982   21983   21985
   21991   21982   21983   21986   21991   21982   21987   21988
   21991   21982   21987   21989   21991   21982   21987   21990
   21991   21982   21995   21996   21991   21982   21995   21997
   21991   21982   21995   21998   21995   21982   21983   21984
   21995   21982   21983   21985   21995   21982   21983   21986
   21995   21982   21987   21988   21995   21982   21987   21989
   21995   21982   21987   21990   21995   21982   21991   21992
   21995   21982   21991   21993   21995   21982   21991   21994
   21995   21998   22005   22001   21996   21995   21998   21999
   21996   21995   21998   22000   21996   21995   21998   22005
   21997   21995   21998   21999   21997   21995   21998   22000
   21997   21995   21998   22005   21999   21998   22005   22001
   22000   21998   22005   22001   22001   22004   22006   22007
   22001   22004   22006   22008   22001   22004   22006   22009
   22002   22001   22005   21998   22002   22001   22004   22006
   22003   22001   22005   21998   22003   22001   22004   22006
   22004   22001   22005   21998   22004   22006   22009   22010
   22004   22006   22009   22017   22004   22006   22009   22011
   22005   22001   22004   22006   22006   22009   22017   22018
   22006   22009   22017   22019   22006   22009   22017   22020
   22006   22009   22011   22012   22007   22006   22009   22010
   22007   22006   22009   22017   22007   22006   22009   22011
   22008   22006   22009   22010   22008   22006   22009   22017
   22008   22006   22009   22011   22009   22017   22020   22021
   22009   22011   22012   22014   22009   22011   22012   22013
   22010   22009   22017   22018   22010   22009   22017   22019
   22010   22009   22017   22020   22010   22009   22011   22012
   22011   22012   22014   22015   22011   22012   22014   22016
   22011   22012   22014   22026   22011   22009   22017   22018
   22011   22009   22017   22019   22011   22009   22017   22020
   22012   22014   22026   22027   22012   22014   22026   22028
   22012   22014   22026   22029   22013   22012   22014   22015
   22013   22012   22014   22016   22013   22012   22014   22026
   22014   22026   22029   22030   22014   22026   22029   22031
   22014   22026   22029   22032   22015   22014   22026   22027
   22015   22014   22026   22028   22015   22014   22026   22029
   22016   22014   22026   22027   22016   22014   22026   22028
   22016   22014   22026   22029   22017   22009   22011   22012
   22017   22020   22021   22023   22017   22020   22021   22022
   22018   22017   22020   22021   22019   22017   22020   22021
   22020   22021   22023   22024   22020   22021   22023   22025
   22020   22021   22023   22063   22021   22023   22063   22064
   22021   22023   22063   22065   22021   22023   22063   22066
   22022   22021   22023   22024   22022   22021   22023   22025
   22022   22021   22023   22063   22023   22063   22066   22067
   22023   22063   22066   22068   22023   22063   22066   22069
   22024   22023   22063   22064   22024   22023   22063   22065
   22024   22023   22063   22066   22025   22023   22063   22064
   22025   22023   22063   22065   22025   22023   22063   22066
   22026   22029   22032   22033   22026   22029   22032   22034
   22026   22029   22032   22035   22027   22026   22029   22030
   22027   22026   22029   22031   22027   22026   22029   22032
   22028   22026   22029   22030   22028   22026   22029   22031
   22028   22026   22029   22032   22029   22032   22035   22036
   22029   22032   22035   22037   22029   22032   22035   22038
   22030   22029   22032   22033   22030   22029   22032   22034
   22030   22029   22032   22035   22031   22029   22032   22033
   22031   22029   22032   22034   22031   22029   22032   22035
   22032   22035   22038   22039   22032   22035   22038   22040
   22032   22035   22038   22041   22033   22032   22035   22036
   22033   22032   22035   22037   22033   22032   22035   22038
   22034   22032   22035   22036   22034   22032   22035   22037
   22034   22032   22035   22038   22035   22038   22041   22042
   22035   22038   22041   22043   22035   22038   22041   22044
   22036   22035   22038   22039   22036   22035   22038   22040
   22036   22035   22038   22041   22037   22035   22038   22039
   22037   22035   22038   22040   22037   22035   22038   22041
   22038   22041   22044   22045   22038   22041   22044   22046
   22038   22041   22044   22047   22039   22038   22041   22042
   22039   22038   22041   22043   22039   22038   22041   22044
   22040   22038   22041   22042   22040   22038   22041   22043
   22040   22038   22041   22044   22041   22044   22047   22048
   22041   22044   22047   22049   22041   22044   22047   22050
   22042   22041   22044   22045   22042   22041   22044   22046
   22042   22041   22044   22047   22043   22041   22044   22045
   22043   22041   22044   22046   22043   22041   22044   22047
   22044   22047   22050   22051   22044   22047   22050   22052
   22044   22047   22050   22053   22045   22044   22047   22048
   22045   22044   22047   22049   22045   22044   22047   22050
   22046   22044   22047   22048   22046   22044   22047   22049
   22046   22044   22047   22050   22047   22050   22053   22054
   22047   22050   22053   22055   22047   22050   22053   22056
   22048   22047   22050   22051   22048   22047   22050   22052
   22048   22047   22050   22053   22049   22047   22050   22051
   22049   22047   22050   22052   22049   22047   22050   22053
   22050   22053   22056   22057   22050   22053   22056   22058
   22050   22053   22056   22059   22051   22050   22053   22054
   22051   22050   22053   22055   22051   22050   22053   22056
   22052   22050   22053   22054   22052   22050   22053   22055
   22052   22050   22053   22056   22053   22056   22059   22060
   22053   22056   22059   22061   22053   22056   22059   22062
   22054   22053   22056   22057   22054   22053   22056   22058
   22054   22053   22056   22059   22055   22053   22056   22057
   22055   22053   22056   22058   22055   22053   22056   22059
   22057   22056   22059   22060   22057   22056   22059   22061
   22057   22056   22059   22062   22058   22056   22059   22060
   22058   22056   22059   22061   22058   22056   22059   22062
   22063   22066   22069   22070   22063   22066   22069   22071
   22063   22066   22069   22072   22064   22063   22066   22067
   22064   22063   22066   22068   22064   22063   22066   22069
   22065   22063   22066   22067   22065   22063   22066   22068
   22065   22063   22066   22069   22066   22069   22072   22073
   22066   22069   22072   22074   22066   22069   22072   22075
   22067   22066   22069   22070   22067   22066   22069   22071
   22067   22066   22069   22072   22068   22066   22069   22070
   22068   22066   22069   22071   22068   22066   22069   22072
   22069   22072   22075   22076   22069   22072   22075   22077
   22069   22072   22075   22078   22070   22069   22072   22073
   22070   22069   22072   22074   22070   22069   22072   22075
   22071   22069   22072   22073   22071   22069   22072   22074
   22071   22069   22072   22075   22072   22075   22078   22079
   22072   22075   22078   22080   22072   22075   22078   22081
   22073   22072   22075   22076   22073   22072   22075   22077
   22073   22072   22075   22078   22074   22072   22075   22076
   22074   22072   22075   22077   22074   22072   22075   22078
   22075   22078   22081   22082   22075   22078   22081   22083
   22075   22078   22081   22084   22076   22075   22078   22079
   22076   22075   22078   22080   22076   22075   22078   22081
   22077   22075   22078   22079   22077   22075   22078   22080
   22077   22075   22078   22081   22078   22081   22084   22085
   22078   22081   22084   22086   22078   22081   22084   22087
   22079   22078   22081   22082   22079   22078   22081   22083
   22079   22078   22081   22084   22080   22078   22081   22082
   22080   22078   22081   22083   22080   22078   22081   22084
   22081   22084   22087   22088   22081   22084   22087   22089
   22081   22084   22087   22090   22082   22081   22084   22085
   22082   22081   22084   22086   22082   22081   22084   22087
   22083   22081   22084   22085   22083   22081   22084   22086
   22083   22081   22084   22087   22084   22087   22090   22091
   22084   22087   22090   22092   22084   22087   22090   22093
   22085   22084   22087   22088   22085   22084   22087   22089
   22085   22084   22087   22090   22086   22084   22087   22088
   22086   22084   22087   22089   22086   22084   22087   22090
   22087   22090   22093   22094   22087   22090   22093   22095
   22087   22090   22093   22096   22088   22087   22090   22091
   22088   22087   22090   22092   22088   22087   22090   22093
   22089   22087   22090   22091   22089   22087   22090   22092
   22089   22087   22090   22093   22090   22093   22096   22097
   22090   22093   22096   22098   22090   22093   22096   22099
   22091   22090   22093   22094   22091   22090   22093   22095
   22091   22090   22093   22096   22092   22090   22093   22094
   22092   22090   22093   22095   22092   22090   22093   22096
   22094   22093   22096   22097   22094   22093   22096   22098
   22094   22093   22096   22099   22095   22093   22096   22097
   22095   22093   22096   22098   22095   22093   22096   22099
   22100   22113   22116   22117   22100   22113   22116   22118
   22100   22113   22116   22123   22101   22100   22105   22106
   22101   22100   22105   22107   22101   22100   22105   22108
   22101   22100   22109   22110   22101   22100   22109   22111
   22101   22100   22109   22112   22101   22100   22113   22114
   22101   22100   22113   22115   22101   22100   22113   22116
   22105   22100   22101   22102   22105   22100   22101   22103
   22105   22100   22101   22104   22105   22100   22109   22110
   22105   22100   22109   22111   22105   22100   22109   22112
   22105   22100   22113   22114   22105   22100   22113   22115
   22105   22100   22113   22116   22109   22100   22101   22102
   22109   22100   22101   22103   22109   22100   22101   22104
   22109   22100   22105   22106   22109   22100   22105   22107
   22109   22100   22105   22108   22109   22100   22113   22114
   22109   22100   22113   22115   22109   22100   22113   22116
   22113   22100   22101   22102   22113   22100   22101   22103
   22113   22100   22101   22104   22113   22100   22105   22106
   22113   22100   22105   22107   22113   22100   22105   22108
   22113   22100   22109   22110   22113   22100   22109   22111
   22113   22100   22109   22112   22113   22116   22123   22119
   22114   22113   22116   22117   22114   22113   22116   22118
   22114   22113   22116   22123   22115   22113   22116   22117
   22115   22113   22116   22118   22115   22113   22116   22123
   22117   22116   22123   22119   22118   22116   22123   22119
   22119   22122   22124   22125   22119   22122   22124   22126
   22119   22122   22124   22127   22120   22119   22123   22116
   22120   22119   22122   22124   22121   22119   22123   22116
   22121   22119   22122   22124   22122   22119   22123   22116
   22122   22124   22127   22128   22122   22124   22127   22135
   22122   22124   22127   22129   22123   22119   22122   22124
   22124   22127   22135   22136   22124   22127   22135   22137
   22124   22127   22135   22138   22124   22127   22129   22130
   22125   22124   22127   22128   22125   22124   22127   22135
   22125   22124   22127   22129   22126   22124   22127   22128
   22126   22124   22127   22135   22126   22124   22127   22129
   22127   22135   22138   22139   22127   22129   22130   22132
   22127   22129   22130   22131   22128   22127   22135   22136
   22128   22127   22135   22137   22128   22127   22135   22138
   22128   22127   22129   22130   22129   22130   22132   22133
   22129   22130   22132   22134   22129   22130   22132   22144
   22129   22127   22135   22136   22129   22127   22135   22137
   22129   22127   22135   22138   22130   22132   22144   22145
   22130   22132   22144   22146   22130   22132   22144   22147
   22131   22130   22132   22133   22131   22130   22132   22134
   22131   22130   22132   22144   22132   22144   22147   22148
   22132   22144   22147   22149   22132   22144   22147   22150
   22133   22132   22144   22145   22133   22132   22144   22146
   22133   22132   22144   22147   22134   22132   22144   22145
   22134   22132   22144   22146   22134   22132   22144   22147
   22135   22127   22129   22130   22135   22138   22139   22141
   22135   22138   22139   22140   22136   22135   22138   22139
   22137   22135   22138   22139   22138   22139   22141   22142
   22138   22139   22141   22143   22138   22139   22141   22181
   22139   22141   22181   22182   22139   22141   22181   22183
   22139   22141   22181   22184   22140   22139   22141   22142
   22140   22139   22141   22143   22140   22139   22141   22181
   22141   22181   22184   22185   22141   22181   22184   22186
   22141   22181   22184   22187   22142   22141   22181   22182
   22142   22141   22181   22183   22142   22141   22181   22184
   22143   22141   22181   22182   22143   22141   22181   22183
   22143   22141   22181   22184   22144   22147   22150   22151
   22144   22147   22150   22152   22144   22147   22150   22153
   22145   22144   22147   22148   22145   22144   22147   22149
   22145   22144   22147   22150   22146   22144   22147   22148
   22146   22144   22147   22149   22146   22144   22147   22150
   22147   22150   22153   22154   22147   22150   22153   22155
   22147   22150   22153   22156   22148   22147   22150   22151
   22148   22147   22150   22152   22148   22147   22150   22153
   22149   22147   22150   22151   22149   22147   22150   22152
   22149   22147   22150   22153   22150   22153   22156   22157
   22150   22153   22156   22158   22150   22153   22156   22159
   22151   22150   22153   22154   22151   22150   22153   22155
   22151   22150   22153   22156   22152   22150   22153   22154
   22152   22150   22153   22155   22152   22150   22153   22156
   22153   22156   22159   22160   22153   22156   22159   22161
   22153   22156   22159   22162   22154   22153   22156   22157
   22154   22153   22156   22158   22154   22153   22156   22159
   22155   22153   22156   22157   22155   22153   22156   22158
   22155   22153   22156   22159   22156   22159   22162   22163
   22156   22159   22162   22164   22156   22159   22162   22165
   22157   22156   22159   22160   22157   22156   22159   22161
   22157   22156   22159   22162   22158   22156   22159   22160
   22158   22156   22159   22161   22158   22156   22159   22162
   22159   22162   22165   22166   22159   22162   22165   22167
   22159   22162   22165   22168   22160   22159   22162   22163
   22160   22159   22162   22164   22160   22159   22162   22165
   22161   22159   22162   22163   22161   22159   22162   22164
   22161   22159   22162   22165   22162   22165   22168   22169
   22162   22165   22168   22170   22162   22165   22168   22171
   22163   22162   22165   22166   22163   22162   22165   22167
   22163   22162   22165   22168   22164   22162   22165   22166
   22164   22162   22165   22167   22164   22162   22165   22168
   22165   22168   22171   22172   22165   22168   22171   22173
   22165   22168   22171   22174   22166   22165   22168   22169
   22166   22165   22168   22170   22166   22165   22168   22171
   22167   22165   22168   22169   22167   22165   22168   22170
   22167   22165   22168   22171   22168   22171   22174   22175
   22168   22171   22174   22176   22168   22171   22174   22177
   22169   22168   22171   22172   22169   22168   22171   22173
   22169   22168   22171   22174   22170   22168   22171   22172
   22170   22168   22171   22173   22170   22168   22171   22174
   22171   22174   22177   22178   22171   22174   22177   22179
   22171   22174   22177   22180   22172   22171   22174   22175
   22172   22171   22174   22176   22172   22171   22174   22177
   22173   22171   22174   22175   22173   22171   22174   22176
   22173   22171   22174   22177   22175   22174   22177   22178
   22175   22174   22177   22179   22175   22174   22177   22180
   22176   22174   22177   22178   22176   22174   22177   22179
   22176   22174   22177   22180   22181   22184   22187   22188
   22181   22184   22187   22189   22181   22184   22187   22190
   22182   22181   22184   22185   22182   22181   22184   22186
   22182   22181   22184   22187   22183   22181   22184   22185
   22183   22181   22184   22186   22183   22181   22184   22187
   22184   22187   22190   22191   22184   22187   22190   22192
   22184   22187   22190   22193   22185   22184   22187   22188
   22185   22184   22187   22189   22185   22184   22187   22190
   22186   22184   22187   22188   22186   22184   22187   22189
   22186   22184   22187   22190   22187   22190   22193   22194
   22187   22190   22193   22195   22187   22190   22193   22196
   22188   22187   22190   22191   22188   22187   22190   22192
   22188   22187   22190   22193   22189   22187   22190   22191
   22189   22187   22190   22192   22189   22187   22190   22193
   22190   22193   22196   22197   22190   22193   22196   22198
   22190   22193   22196   22199   22191   22190   22193   22194
   22191   22190   22193   22195   22191   22190   22193   22196
   22192   22190   22193   22194   22192   22190   22193   22195
   22192   22190   22193   22196   22193   22196   22199   22200
   22193   22196   22199   22201   22193   22196   22199   22202
   22194   22193   22196   22197   22194   22193   22196   22198
   22194   22193   22196   22199   22195   22193   22196   22197
   22195   22193   22196   22198   22195   22193   22196   22199
   22196   22199   22202   22203   22196   22199   22202   22204
   22196   22199   22202   22205   22197   22196   22199   22200
   22197   22196   22199   22201   22197   22196   22199   22202
   22198   22196   22199   22200   22198   22196   22199   22201
   22198   22196   22199   22202   22199   22202   22205   22206
   22199   22202   22205   22207   22199   22202   22205   22208
   22200   22199   22202   22203   22200   22199   22202   22204
   22200   22199   22202   22205   22201   22199   22202   22203
   22201   22199   22202   22204   22201   22199   22202   22205
   22202   22205   22208   22209   22202   22205   22208   22210
   22202   22205   22208   22211   22203   22202   22205   22206
   22203   22202   22205   22207   22203   22202   22205   22208
   22204   22202   22205   22206   22204   22202   22205   22207
   22204   22202   22205   22208   22205   22208   22211   22212
   22205   22208   22211   22213   22205   22208   22211   22214
   22206   22205   22208   22209   22206   22205   22208   22210
   22206   22205   22208   22211   22207   22205   22208   22209
   22207   22205   22208   22210   22207   22205   22208   22211
   22208   22211   22214   22215   22208   22211   22214   22216
   22208   22211   22214   22217   22209   22208   22211   22212
   22209   22208   22211   22213   22209   22208   22211   22214
   22210   22208   22211   22212   22210   22208   22211   22213
   22210   22208   22211   22214   22212   22211   22214   22215
   22212   22211   22214   22216   22212   22211   22214   22217
   22213   22211   22214   22215   22213   22211   22214   22216
   22213   22211   22214   22217   22218   22231   22234   22235
   22218   22231   22234   22236   22218   22231   22234   22241
   22219   22218   22223   22224   22219   22218   22223   22225
   22219   22218   22223   22226   22219   22218   22227   22228
   22219   22218   22227   22229   22219   22218   22227   22230
   22219   22218   22231   22232   22219   22218   22231   22233
   22219   22218   22231   22234   22223   22218   22219   22220
   22223   22218   22219   22221   22223   22218   22219   22222
   22223   22218   22227   22228   22223   22218   22227   22229
   22223   22218   22227   22230   22223   22218   22231   22232
   22223   22218   22231   22233   22223   22218   22231   22234
   22227   22218   22219   22220   22227   22218   22219   22221
   22227   22218   22219   22222   22227   22218   22223   22224
   22227   22218   22223   22225   22227   22218   22223   22226
   22227   22218   22231   22232   22227   22218   22231   22233
   22227   22218   22231   22234   22231   22218   22219   22220
   22231   22218   22219   22221   22231   22218   22219   22222
   22231   22218   22223   22224   22231   22218   22223   22225
   22231   22218   22223   22226   22231   22218   22227   22228
   22231   22218   22227   22229   22231   22218   22227   22230
   22231   22234   22241   22237   22232   22231   22234   22235
   22232   22231   22234   22236   22232   22231   22234   22241
   22233   22231   22234   22235   22233   22231   22234   22236
   22233   22231   22234   22241   22235   22234   22241   22237
   22236   22234   22241   22237   22237   22240   22242   22243
   22237   22240   22242   22244   22237   22240   22242   22245
   22238   22237   22241   22234   22238   22237   22240   22242
   22239   22237   22241   22234   22239   22237   22240   22242
   22240   22237   22241   22234   22240   22242   22245   22246
   22240   22242   22245   22253   22240   22242   22245   22247
   22241   22237   22240   22242   22242   22245   22253   22254
   22242   22245   22253   22255   22242   22245   22253   22256
   22242   22245   22247   22248   22243   22242   22245   22246
   22243   22242   22245   22253   22243   22242   22245   22247
   22244   22242   22245   22246   22244   22242   22245   22253
   22244   22242   22245   22247   22245   22253   22256   22257
   22245   22247   22248   22250   22245   22247   22248   22249
   22246   22245   22253   22254   22246   22245   22253   22255
   22246   22245   22253   22256   22246   22245   22247   22248
   22247   22248   22250   22251   22247   22248   22250   22252
   22247   22248   22250   22262   22247   22245   22253   22254
   22247   22245   22253   22255   22247   22245   22253   22256
   22248   22250   22262   22263   22248   22250   22262   22264
   22248   22250   22262   22265   22249   22248   22250   22251
   22249   22248   22250   22252   22249   22248   22250   22262
   22250   22262   22265   22266   22250   22262   22265   22267
   22250   22262   22265   22268   22251   22250   22262   22263
   22251   22250   22262   22264   22251   22250   22262   22265
   22252   22250   22262   22263   22252   22250   22262   22264
   22252   22250   22262   22265   22253   22245   22247   22248
   22253   22256   22257   22259   22253   22256   22257   22258
   22254   22253   22256   22257   22255   22253   22256   22257
   22256   22257   22259   22260   22256   22257   22259   22261
   22256   22257   22259   22299   22257   22259   22299   22300
   22257   22259   22299   22301   22257   22259   22299   22302
   22258   22257   22259   22260   22258   22257   22259   22261
   22258   22257   22259   22299   22259   22299   22302   22303
   22259   22299   22302   22304   22259   22299   22302   22305
   22260   22259   22299   22300   22260   22259   22299   22301
   22260   22259   22299   22302   22261   22259   22299   22300
   22261   22259   22299   22301   22261   22259   22299   22302
   22262   22265   22268   22269   22262   22265   22268   22270
   22262   22265   22268   22271   22263   22262   22265   22266
   22263   22262   22265   22267   22263   22262   22265   22268
   22264   22262   22265   22266   22264   22262   22265   22267
   22264   22262   22265   22268   22265   22268   22271   22272
   22265   22268   22271   22273   22265   22268   22271   22274
   22266   22265   22268   22269   22266   22265   22268   22270
   22266   22265   22268   22271   22267   22265   22268   22269
   22267   22265   22268   22270   22267   22265   22268   22271
   22268   22271   22274   22275   22268   22271   22274   22276
   22268   22271   22274   22277   22269   22268   22271   22272
   22269   22268   22271   22273   22269   22268   22271   22274
   22270   22268   22271   22272   22270   22268   22271   22273
   22270   22268   22271   22274   22271   22274   22277   22278
   22271   22274   22277   22279   22271   22274   22277   22280
   22272   22271   22274   22275   22272   22271   22274   22276
   22272   22271   22274   22277   22273   22271   22274   22275
   22273   22271   22274   22276   22273   22271   22274   22277
   22274   22277   22280   22281   22274   22277   22280   22282
   22274   22277   22280   22283   22275   22274   22277   22278
   22275   22274   22277   22279   22275   22274   22277   22280
   22276   22274   22277   22278   22276   22274   22277   22279
   22276   22274   22277   22280   22277   22280   22283   22284
   22277   22280   22283   22285   22277   22280   22283   22286
   22278   22277   22280   22281   22278   22277   22280   22282
   22278   22277   22280   22283   22279   22277   22280   22281
   22279   22277   22280   22282   22279   22277   22280   22283
   22280   22283   22286   22287   22280   22283   22286   22288
   22280   22283   22286   22289   22281   22280   22283   22284
   22281   22280   22283   22285   22281   22280   22283   22286
   22282   22280   22283   22284   22282   22280   22283   22285
   22282   22280   22283   22286   22283   22286   22289   22290
   22283   22286   22289   22291   22283   22286   22289   22292
   22284   22283   22286   22287   22284   22283   22286   22288
   22284   22283   22286   22289   22285   22283   22286   22287
   22285   22283   22286   22288   22285   22283   22286   22289
   22286   22289   22292   22293   22286   22289   22292   22294
   22286   22289   22292   22295   22287   22286   22289   22290
   22287   22286   22289   22291   22287   22286   22289   22292
   22288   22286   22289   22290   22288   22286   22289   22291
   22288   22286   22289   22292   22289   22292   22295   22296
   22289   22292   22295   22297   22289   22292   22295   22298
   22290   22289   22292   22293   22290   22289   22292   22294
   22290   22289   22292   22295   22291   22289   22292   22293
   22291   22289   22292   22294   22291   22289   22292   22295
   22293   22292   22295   22296   22293   22292   22295   22297
   22293   22292   22295   22298   22294   22292   22295   22296
   22294   22292   22295   22297   22294   22292   22295   22298
   22299   22302   22305   22306   22299   22302   22305   22307
   22299   22302   22305   22308   22300   22299   22302   22303
   22300   22299   22302   22304   22300   22299   22302   22305
   22301   22299   22302   22303   22301   22299   22302   22304
   22301   22299   22302   22305   22302   22305   22308   22309
   22302   22305   22308   22310   22302   22305   22308   22311
   22303   22302   22305   22306   22303   22302   22305   22307
   22303   22302   22305   22308   22304   22302   22305   22306
   22304   22302   22305   22307   22304   22302   22305   22308
   22305   22308   22311   22312   22305   22308   22311   22313
   22305   22308   22311   22314   22306   22305   22308   22309
   22306   22305   22308   22310   22306   22305   22308   22311
   22307   22305   22308   22309   22307   22305   22308   22310
   22307   22305   22308   22311   22308   22311   22314   22315
   22308   22311   22314   22316   22308   22311   22314   22317
   22309   22308   22311   22312   22309   22308   22311   22313
   22309   22308   22311   22314   22310   22308   22311   22312
   22310   22308   22311   22313   22310   22308   22311   22314
   22311   22314   22317   22318   22311   22314   22317   22319
   22311   22314   22317   22320   22312   22311   22314   22315
   22312   22311   22314   22316   22312   22311   22314   22317
   22313   22311   22314   22315   22313   22311   22314   22316
   22313   22311   22314   22317   22314   22317   22320   22321
   22314   22317   22320   22322   22314   22317   22320   22323
   22315   22314   22317   22318   22315   22314   22317   22319
   22315   22314   22317   22320   22316   22314   22317   22318
   22316   22314   22317   22319   22316   22314   22317   22320
   22317   22320   22323   22324   22317   22320   22323   22325
   22317   22320   22323   22326   22318   22317   22320   22321
   22318   22317   22320   22322   22318   22317   22320   22323
   22319   22317   22320   22321   22319   22317   22320   22322
   22319   22317   22320   22323   22320   22323   22326   22327
   22320   22323   22326   22328   22320   22323   22326   22329
   22321   22320   22323   22324   22321   22320   22323   22325
   22321   22320   22323   22326   22322   22320   22323   22324
   22322   22320   22323   22325   22322   22320   22323   22326
   22323   22326   22329   22330   22323   22326   22329   22331
   22323   22326   22329   22332   22324   22323   22326   22327
   22324   22323   22326   22328   22324   22323   22326   22329
   22325   22323   22326   22327   22325   22323   22326   22328
   22325   22323   22326   22329   22326   22329   22332   22333
   22326   22329   22332   22334   22326   22329   22332   22335
   22327   22326   22329   22330   22327   22326   22329   22331
   22327   22326   22329   22332   22328   22326   22329   22330
   22328   22326   22329   22331   22328   22326   22329   22332
   22330   22329   22332   22333   22330   22329   22332   22334
   22330   22329   22332   22335   22331   22329   22332   22333
   22331   22329   22332   22334   22331   22329   22332   22335
   22336   22349   22352   22353   22336   22349   22352   22354
   22336   22349   22352   22359   22337   22336   22341   22342
   22337   22336   22341   22343   22337   22336   22341   22344
   22337   22336   22345   22346   22337   22336   22345   22347
   22337   22336   22345   22348   22337   22336   22349   22350
   22337   22336   22349   22351   22337   22336   22349   22352
   22341   22336   22337   22338   22341   22336   22337   22339
   22341   22336   22337   22340   22341   22336   22345   22346
   22341   22336   22345   22347   22341   22336   22345   22348
   22341   22336   22349   22350   22341   22336   22349   22351
   22341   22336   22349   22352   22345   22336   22337   22338
   22345   22336   22337   22339   22345   22336   22337   22340
   22345   22336   22341   22342   22345   22336   22341   22343
   22345   22336   22341   22344   22345   22336   22349   22350
   22345   22336   22349   22351   22345   22336   22349   22352
   22349   22336   22337   22338   22349   22336   22337   22339
   22349   22336   22337   22340   22349   22336   22341   22342
   22349   22336   22341   22343   22349   22336   22341   22344
   22349   22336   22345   22346   22349   22336   22345   22347
   22349   22336   22345   22348   22349   22352   22359   22355
   22350   22349   22352   22353   22350   22349   22352   22354
   22350   22349   22352   22359   22351   22349   22352   22353
   22351   22349   22352   22354   22351   22349   22352   22359
   22353   22352   22359   22355   22354   22352   22359   22355
   22355   22358   22360   22361   22355   22358   22360   22362
   22355   22358   22360   22363   22356   22355   22359   22352
   22356   22355   22358   22360   22357   22355   22359   22352
   22357   22355   22358   22360   22358   22355   22359   22352
   22358   22360   22363   22364   22358   22360   22363   22371
   22358   22360   22363   22365   22359   22355   22358   22360
   22360   22363   22371   22372   22360   22363   22371   22373
   22360   22363   22371   22374   22360   22363   22365   22366
   22361   22360   22363   22364   22361   22360   22363   22371
   22361   22360   22363   22365   22362   22360   22363   22364
   22362   22360   22363   22371   22362   22360   22363   22365
   22363   22371   22374   22375   22363   22365   22366   22368
   22363   22365   22366   22367   22364   22363   22371   22372
   22364   22363   22371   22373   22364   22363   22371   22374
   22364   22363   22365   22366   22365   22366   22368   22369
   22365   22366   22368   22370   22365   22366   22368   22380
   22365   22363   22371   22372   22365   22363   22371   22373
   22365   22363   22371   22374   22366   22368   22380   22381
   22366   22368   22380   22382   22366   22368   22380   22383
   22367   22366   22368   22369   22367   22366   22368   22370
   22367   22366   22368   22380   22368   22380   22383   22384
   22368   22380   22383   22385   22368   22380   22383   22386
   22369   22368   22380   22381   22369   22368   22380   22382
   22369   22368   22380   22383   22370   22368   22380   22381
   22370   22368   22380   22382   22370   22368   22380   22383
   22371   22363   22365   22366   22371   22374   22375   22377
   22371   22374   22375   22376   22372   22371   22374   22375
   22373   22371   22374   22375   22374   22375   22377   22378
   22374   22375   22377   22379   22374   22375   22377   22417
   22375   22377   22417   22418   22375   22377   22417   22419
   22375   22377   22417   22420   22376   22375   22377   22378
   22376   22375   22377   22379   22376   22375   22377   22417
   22377   22417   22420   22421   22377   22417   22420   22422
   22377   22417   22420   22423   22378   22377   22417   22418
   22378   22377   22417   22419   22378   22377   22417   22420
   22379   22377   22417   22418   22379   22377   22417   22419
   22379   22377   22417   22420   22380   22383   22386   22387
   22380   22383   22386   22388   22380   22383   22386   22389
   22381   22380   22383   22384   22381   22380   22383   22385
   22381   22380   22383   22386   22382   22380   22383   22384
   22382   22380   22383   22385   22382   22380   22383   22386
   22383   22386   22389   22390   22383   22386   22389   22391
   22383   22386   22389   22392   22384   22383   22386   22387
   22384   22383   22386   22388   22384   22383   22386   22389
   22385   22383   22386   22387   22385   22383   22386   22388
   22385   22383   22386   22389   22386   22389   22392   22393
   22386   22389   22392   22394   22386   22389   22392   22395
   22387   22386   22389   22390   22387   22386   22389   22391
   22387   22386   22389   22392   22388   22386   22389   22390
   22388   22386   22389   22391   22388   22386   22389   22392
   22389   22392   22395   22396   22389   22392   22395   22397
   22389   22392   22395   22398   22390   22389   22392   22393
   22390   22389   22392   22394   22390   22389   22392   22395
   22391   22389   22392   22393   22391   22389   22392   22394
   22391   22389   22392   22395   22392   22395   22398   22399
   22392   22395   22398   22400   22392   22395   22398   22401
   22393   22392   22395   22396   22393   22392   22395   22397
   22393   22392   22395   22398   22394   22392   22395   22396
   22394   22392   22395   22397   22394   22392   22395   22398
   22395   22398   22401   22402   22395   22398   22401   22403
   22395   22398   22401   22404   22396   22395   22398   22399
   22396   22395   22398   22400   22396   22395   22398   22401
   22397   22395   22398   22399   22397   22395   22398   22400
   22397   22395   22398   22401   22398   22401   22404   22405
   22398   22401   22404   22406   22398   22401   22404   22407
   22399   22398   22401   22402   22399   22398   22401   22403
   22399   22398   22401   22404   22400   22398   22401   22402
   22400   22398   22401   22403   22400   22398   22401   22404
   22401   22404   22407   22408   22401   22404   22407   22409
   22401   22404   22407   22410   22402   22401   22404   22405
   22402   22401   22404   22406   22402   22401   22404   22407
   22403   22401   22404   22405   22403   22401   22404   22406
   22403   22401   22404   22407   22404   22407   22410   22411
   22404   22407   22410   22412   22404   22407   22410   22413
   22405   22404   22407   22408   22405   22404   22407   22409
   22405   22404   22407   22410   22406   22404   22407   22408
   22406   22404   22407   22409   22406   22404   22407   22410
   22407   22410   22413   22414   22407   22410   22413   22415
   22407   22410   22413   22416   22408   22407   22410   22411
   22408   22407   22410   22412   22408   22407   22410   22413
   22409   22407   22410   22411   22409   22407   22410   22412
   22409   22407   22410   22413   22411   22410   22413   22414
   22411   22410   22413   22415   22411   22410   22413   22416
   22412   22410   22413   22414   22412   22410   22413   22415
   22412   22410   22413   22416   22417   22420   22423   22424
   22417   22420   22423   22425   22417   22420   22423   22426
   22418   22417   22420   22421   22418   22417   22420   22422
   22418   22417   22420   22423   22419   22417   22420   22421
   22419   22417   22420   22422   22419   22417   22420   22423
   22420   22423   22426   22427   22420   22423   22426   22428
   22420   22423   22426   22429   22421   22420   22423   22424
   22421   22420   22423   22425   22421   22420   22423   22426
   22422   22420   22423   22424   22422   22420   22423   22425
   22422   22420   22423   22426   22423   22426   22429   22430
   22423   22426   22429   22431   22423   22426   22429   22432
   22424   22423   22426   22427   22424   22423   22426   22428
   22424   22423   22426   22429   22425   22423   22426   22427
   22425   22423   22426   22428   22425   22423   22426   22429
   22426   22429   22432   22433   22426   22429   22432   22434
   22426   22429   22432   22435   22427   22426   22429   22430
   22427   22426   22429   22431   22427   22426   22429   22432
   22428   22426   22429   22430   22428   22426   22429   22431
   22428   22426   22429   22432   22429   22432   22435   22436
   22429   22432   22435   22437   22429   22432   22435   22438
   22430   22429   22432   22433   22430   22429   22432   22434
   22430   22429   22432   22435   22431   22429   22432   22433
   22431   22429   22432   22434   22431   22429   22432   22435
   22432   22435   22438   22439   22432   22435   22438   22440
   22432   22435   22438   22441   22433   22432   22435   22436
   22433   22432   22435   22437   22433   22432   22435   22438
   22434   22432   22435   22436   22434   22432   22435   22437
   22434   22432   22435   22438   22435   22438   22441   22442
   22435   22438   22441   22443   22435   22438   22441   22444
   22436   22435   22438   22439   22436   22435   22438   22440
   22436   22435   22438   22441   22437   22435   22438   22439
   22437   22435   22438   22440   22437   22435   22438   22441
   22438   22441   22444   22445   22438   22441   22444   22446
   22438   22441   22444   22447   22439   22438   22441   22442
   22439   22438   22441   22443   22439   22438   22441   22444
   22440   22438   22441   22442   22440   22438   22441   22443
   22440   22438   22441   22444   22441   22444   22447   22448
   22441   22444   22447   22449   22441   22444   22447   22450
   22442   22441   22444   22445   22442   22441   22444   22446
   22442   22441   22444   22447   22443   22441   22444   22445
   22443   22441   22444   22446   22443   22441   22444   22447
   22444   22447   22450   22451   22444   22447   22450   22452
   22444   22447   22450   22453   22445   22444   22447   22448
   22445   22444   22447   22449   22445   22444   22447   22450
   22446   22444   22447   22448   22446   22444   22447   22449
   22446   22444   22447   22450   22448   22447   22450   22451
   22448   22447   22450   22452   22448   22447   22450   22453
   22449   22447   22450   22451   22449   22447   22450   22452
   22449   22447   22450   22453   22454   22467   22470   22471
   22454   22467   22470   22472   22454   22467   22470   22477
   22455   22454   22459   22460   22455   22454   22459   22461
   22455   22454   22459   22462   22455   22454   22463   22464
   22455   22454   22463   22465   22455   22454   22463   22466
   22455   22454   22467   22468   22455   22454   22467   22469
   22455   22454   22467   22470   22459   22454   22455   22456
   22459   22454   22455   22457   22459   22454   22455   22458
   22459   22454   22463   22464   22459   22454   22463   22465
   22459   22454   22463   22466   22459   22454   22467   22468
   22459   22454   22467   22469   22459   22454   22467   22470
   22463   22454   22455   22456   22463   22454   22455   22457
   22463   22454   22455   22458   22463   22454   22459   22460
   22463   22454   22459   22461   22463   22454   22459   22462
   22463   22454   22467   22468   22463   22454   22467   22469
   22463   22454   22467   22470   22467   22454   22455   22456
   22467   22454   22455   22457   22467   22454   22455   22458
   22467   22454   22459   22460   22467   22454   22459   22461
   22467   22454   22459   22462   22467   22454   22463   22464
   22467   22454   22463   22465   22467   22454   22463   22466
   22467   22470   22477   22473   22468   22467   22470   22471
   22468   22467   22470   22472   22468   22467   22470   22477
   22469   22467   22470   22471   22469   22467   22470   22472
   22469   22467   22470   22477   22471   22470   22477   22473
   22472   22470   22477   22473   22473   22476   22478   22479
   22473   22476   22478   22480   22473   22476   22478   22481
   22474   22473   22477   22470   22474   22473   22476   22478
   22475   22473   22477   22470   22475   22473   22476   22478
   22476   22473   22477   22470   22476   22478   22481   22482
   22476   22478   22481   22489   22476   22478   22481   22483
   22477   22473   22476   22478   22478   22481   22489   22490
   22478   22481   22489   22491   22478   22481   22489   22492
   22478   22481   22483   22484   22479   22478   22481   22482
   22479   22478   22481   22489   22479   22478   22481   22483
   22480   22478   22481   22482   22480   22478   22481   22489
   22480   22478   22481   22483   22481   22489   22492   22493
   22481   22483   22484   22486   22481   22483   22484   22485
   22482   22481   22489   22490   22482   22481   22489   22491
   22482   22481   22489   22492   22482   22481   22483   22484
   22483   22484   22486   22487   22483   22484   22486   22488
   22483   22484   22486   22498   22483   22481   22489   22490
   22483   22481   22489   22491   22483   22481   22489   22492
   22484   22486   22498   22499   22484   22486   22498   22500
   22484   22486   22498   22501   22485   22484   22486   22487
   22485   22484   22486   22488   22485   22484   22486   22498
   22486   22498   22501   22502   22486   22498   22501   22503
   22486   22498   22501   22504   22487   22486   22498   22499
   22487   22486   22498   22500   22487   22486   22498   22501
   22488   22486   22498   22499   22488   22486   22498   22500
   22488   22486   22498   22501   22489   22481   22483   22484
   22489   22492   22493   22495   22489   22492   22493   22494
   22490   22489   22492   22493   22491   22489   22492   22493
   22492   22493   22495   22496   22492   22493   22495   22497
   22492   22493   22495   22535   22493   22495   22535   22536
   22493   22495   22535   22537   22493   22495   22535   22538
   22494   22493   22495   22496   22494   22493   22495   22497
   22494   22493   22495   22535   22495   22535   22538   22539
   22495   22535   22538   22540   22495   22535   22538   22541
   22496   22495   22535   22536   22496   22495   22535   22537
   22496   22495   22535   22538   22497   22495   22535   22536
   22497   22495   22535   22537   22497   22495   22535   22538
   22498   22501   22504   22505   22498   22501   22504   22506
   22498   22501   22504   22507   22499   22498   22501   22502
   22499   22498   22501   22503   22499   22498   22501   22504
   22500   22498   22501   22502   22500   22498   22501   22503
   22500   22498   22501   22504   22501   22504   22507   22508
   22501   22504   22507   22509   22501   22504   22507   22510
   22502   22501   22504   22505   22502   22501   22504   22506
   22502   22501   22504   22507   22503   22501   22504   22505
   22503   22501   22504   22506   22503   22501   22504   22507
   22504   22507   22510   22511   22504   22507   22510   22512
   22504   22507   22510   22513   22505   22504   22507   22508
   22505   22504   22507   22509   22505   22504   22507   22510
   22506   22504   22507   22508   22506   22504   22507   22509
   22506   22504   22507   22510   22507   22510   22513   22514
   22507   22510   22513   22515   22507   22510   22513   22516
   22508   22507   22510   22511   22508   22507   22510   22512
   22508   22507   22510   22513   22509   22507   22510   22511
   22509   22507   22510   22512   22509   22507   22510   22513
   22510   22513   22516   22517   22510   22513   22516   22518
   22510   22513   22516   22519   22511   22510   22513   22514
   22511   22510   22513   22515   22511   22510   22513   22516
   22512   22510   22513   22514   22512   22510   22513   22515
   22512   22510   22513   22516   22513   22516   22519   22520
   22513   22516   22519   22521   22513   22516   22519   22522
   22514   22513   22516   22517   22514   22513   22516   22518
   22514   22513   22516   22519   22515   22513   22516   22517
   22515   22513   22516   22518   22515   22513   22516   22519
   22516   22519   22522   22523   22516   22519   22522   22524
   22516   22519   22522   22525   22517   22516   22519   22520
   22517   22516   22519   22521   22517   22516   22519   22522
   22518   22516   22519   22520   22518   22516   22519   22521
   22518   22516   22519   22522   22519   22522   22525   22526
   22519   22522   22525   22527   22519   22522   22525   22528
   22520   22519   22522   22523   22520   22519   22522   22524
   22520   22519   22522   22525   22521   22519   22522   22523
   22521   22519   22522   22524   22521   22519   22522   22525
   22522   22525   22528   22529   22522   22525   22528   22530
   22522   22525   22528   22531   22523   22522   22525   22526
   22523   22522   22525   22527   22523   22522   22525   22528
   22524   22522   22525   22526   22524   22522   22525   22527
   22524   22522   22525   22528   22525   22528   22531   22532
   22525   22528   22531   22533   22525   22528   22531   22534
   22526   22525   22528   22529   22526   22525   22528   22530
   22526   22525   22528   22531   22527   22525   22528   22529
   22527   22525   22528   22530   22527   22525   22528   22531
   22529   22528   22531   22532   22529   22528   22531   22533
   22529   22528   22531   22534   22530   22528   22531   22532
   22530   22528   22531   22533   22530   22528   22531   22534
   22535   22538   22541   22542   22535   22538   22541   22543
   22535   22538   22541   22544   22536   22535   22538   22539
   22536   22535   22538   22540   22536   22535   22538   22541
   22537   22535   22538   22539   22537   22535   22538   22540
   22537   22535   22538   22541   22538   22541   22544   22545
   22538   22541   22544   22546   22538   22541   22544   22547
   22539   22538   22541   22542   22539   22538   22541   22543
   22539   22538   22541   22544   22540   22538   22541   22542
   22540   22538   22541   22543   22540   22538   22541   22544
   22541   22544   22547   22548   22541   22544   22547   22549
   22541   22544   22547   22550   22542   22541   22544   22545
   22542   22541   22544   22546   22542   22541   22544   22547
   22543   22541   22544   22545   22543   22541   22544   22546
   22543   22541   22544   22547   22544   22547   22550   22551
   22544   22547   22550   22552   22544   22547   22550   22553
   22545   22544   22547   22548   22545   22544   22547   22549
   22545   22544   22547   22550   22546   22544   22547   22548
   22546   22544   22547   22549   22546   22544   22547   22550
   22547   22550   22553   22554   22547   22550   22553   22555
   22547   22550   22553   22556   22548   22547   22550   22551
   22548   22547   22550   22552   22548   22547   22550   22553
   22549   22547   22550   22551   22549   22547   22550   22552
   22549   22547   22550   22553   22550   22553   22556   22557
   22550   22553   22556   22558   22550   22553   22556   22559
   22551   22550   22553   22554   22551   22550   22553   22555
   22551   22550   22553   22556   22552   22550   22553   22554
   22552   22550   22553   22555   22552   22550   22553   22556
   22553   22556   22559   22560   22553   22556   22559   22561
   22553   22556   22559   22562   22554   22553   22556   22557
   22554   22553   22556   22558   22554   22553   22556   22559
   22555   22553   22556   22557   22555   22553   22556   22558
   22555   22553   22556   22559   22556   22559   22562   22563
   22556   22559   22562   22564   22556   22559   22562   22565
   22557   22556   22559   22560   22557   22556   22559   22561
   22557   22556   22559   22562   22558   22556   22559   22560
   22558   22556   22559   22561   22558   22556   22559   22562
   22559   22562   22565   22566   22559   22562   22565   22567
   22559   22562   22565   22568   22560   22559   22562   22563
   22560   22559   22562   22564   22560   22559   22562   22565
   22561   22559   22562   22563   22561   22559   22562   22564
   22561   22559   22562   22565   22562   22565   22568   22569
   22562   22565   22568   22570   22562   22565   22568   22571
   22563   22562   22565   22566   22563   22562   22565   22567
   22563   22562   22565   22568   22564   22562   22565   22566
   22564   22562   22565   22567   22564   22562   22565   22568
   22566   22565   22568   22569   22566   22565   22568   22570
   22566   22565   22568   22571   22567   22565   22568   22569
   22567   22565   22568   22570   22567   22565   22568   22571
   22572   22585   22588   22589   22572   22585   22588   22590
   22572   22585   22588   22595   22573   22572   22577   22578
   22573   22572   22577   22579   22573   22572   22577   22580
   22573   22572   22581   22582   22573   22572   22581   22583
   22573   22572   22581   22584   22573   22572   22585   22586
   22573   22572   22585   22587   22573   22572   22585   22588
   22577   22572   22573   22574   22577   22572   22573   22575
   22577   22572   22573   22576   22577   22572   22581   22582
   22577   22572   22581   22583   22577   22572   22581   22584
   22577   22572   22585   22586   22577   22572   22585   22587
   22577   22572   22585   22588   22581   22572   22573   22574
   22581   22572   22573   22575   22581   22572   22573   22576
   22581   22572   22577   22578   22581   22572   22577   22579
   22581   22572   22577   22580   22581   22572   22585   22586
   22581   22572   22585   22587   22581   22572   22585   22588
   22585   22572   22573   22574   22585   22572   22573   22575
   22585   22572   22573   22576   22585   22572   22577   22578
   22585   22572   22577   22579   22585   22572   22577   22580
   22585   22572   22581   22582   22585   22572   22581   22583
   22585   22572   22581   22584   22585   22588   22595   22591
   22586   22585   22588   22589   22586   22585   22588   22590
   22586   22585   22588   22595   22587   22585   22588   22589
   22587   22585   22588   22590   22587   22585   22588   22595
   22589   22588   22595   22591   22590   22588   22595   22591
   22591   22594   22596   22597   22591   22594   22596   22598
   22591   22594   22596   22599   22592   22591   22595   22588
   22592   22591   22594   22596   22593   22591   22595   22588
   22593   22591   22594   22596   22594   22591   22595   22588
   22594   22596   22599   22600   22594   22596   22599   22607
   22594   22596   22599   22601   22595   22591   22594   22596
   22596   22599   22607   22608   22596   22599   22607   22609
   22596   22599   22607   22610   22596   22599   22601   22602
   22597   22596   22599   22600   22597   22596   22599   22607
   22597   22596   22599   22601   22598   22596   22599   22600
   22598   22596   22599   22607   22598   22596   22599   22601
   22599   22607   22610   22611   22599   22601   22602   22604
   22599   22601   22602   22603   22600   22599   22607   22608
   22600   22599   22607   22609   22600   22599   22607   22610
   22600   22599   22601   22602   22601   22602   22604   22605
   22601   22602   22604   22606   22601   22602   22604   22616
   22601   22599   22607   22608   22601   22599   22607   22609
   22601   22599   22607   22610   22602   22604   22616   22617
   22602   22604   22616   22618   22602   22604   22616   22619
   22603   22602   22604   22605   22603   22602   22604   22606
   22603   22602   22604   22616   22604   22616   22619   22620
   22604   22616   22619   22621   22604   22616   22619   22622
   22605   22604   22616   22617   22605   22604   22616   22618
   22605   22604   22616   22619   22606   22604   22616   22617
   22606   22604   22616   22618   22606   22604   22616   22619
   22607   22599   22601   22602   22607   22610   22611   22613
   22607   22610   22611   22612   22608   22607   22610   22611
   22609   22607   22610   22611   22610   22611   22613   22614
   22610   22611   22613   22615   22610   22611   22613   22653
   22611   22613   22653   22654   22611   22613   22653   22655
   22611   22613   22653   22656   22612   22611   22613   22614
   22612   22611   22613   22615   22612   22611   22613   22653
   22613   22653   22656   22657   22613   22653   22656   22658
   22613   22653   22656   22659   22614   22613   22653   22654
   22614   22613   22653   22655   22614   22613   22653   22656
   22615   22613   22653   22654   22615   22613   22653   22655
   22615   22613   22653   22656   22616   22619   22622   22623
   22616   22619   22622   22624   22616   22619   22622   22625
   22617   22616   22619   22620   22617   22616   22619   22621
   22617   22616   22619   22622   22618   22616   22619   22620
   22618   22616   22619   22621   22618   22616   22619   22622
   22619   22622   22625   22626   22619   22622   22625   22627
   22619   22622   22625   22628   22620   22619   22622   22623
   22620   22619   22622   22624   22620   22619   22622   22625
   22621   22619   22622   22623   22621   22619   22622   22624
   22621   22619   22622   22625   22622   22625   22628   22629
   22622   22625   22628   22630   22622   22625   22628   22631
   22623   22622   22625   22626   22623   22622   22625   22627
   22623   22622   22625   22628   22624   22622   22625   22626
   22624   22622   22625   22627   22624   22622   22625   22628
   22625   22628   22631   22632   22625   22628   22631   22633
   22625   22628   22631   22634   22626   22625   22628   22629
   22626   22625   22628   22630   22626   22625   22628   22631
   22627   22625   22628   22629   22627   22625   22628   22630
   22627   22625   22628   22631   22628   22631   22634   22635
   22628   22631   22634   22636   22628   22631   22634   22637
   22629   22628   22631   22632   22629   22628   22631   22633
   22629   22628   22631   22634   22630   22628   22631   22632
   22630   22628   22631   22633   22630   22628   22631   22634
   22631   22634   22637   22638   22631   22634   22637   22639
   22631   22634   22637   22640   22632   22631   22634   22635
   22632   22631   22634   22636   22632   22631   22634   22637
   22633   22631   22634   22635   22633   22631   22634   22636
   22633   22631   22634   22637   22634   22637   22640   22641
   22634   22637   22640   22642   22634   22637   22640   22643
   22635   22634   22637   22638   22635   22634   22637   22639
   22635   22634   22637   22640   22636   22634   22637   22638
   22636   22634   22637   22639   22636   22634   22637   22640
   22637   22640   22643   22644   22637   22640   22643   22645
   22637   22640   22643   22646   22638   22637   22640   22641
   22638   22637   22640   22642   22638   22637   22640   22643
   22639   22637   22640   22641   22639   22637   22640   22642
   22639   22637   22640   22643   22640   22643   22646   22647
   22640   22643   22646   22648   22640   22643   22646   22649
   22641   22640   22643   22644   22641   22640   22643   22645
   22641   22640   22643   22646   22642   22640   22643   22644
   22642   22640   22643   22645   22642   22640   22643   22646
   22643   22646   22649   22650   22643   22646   22649   22651
   22643   22646   22649   22652   22644   22643   22646   22647
   22644   22643   22646   22648   22644   22643   22646   22649
   22645   22643   22646   22647   22645   22643   22646   22648
   22645   22643   22646   22649   22647   22646   22649   22650
   22647   22646   22649   22651   22647   22646   22649   22652
   22648   22646   22649   22650   22648   22646   22649   22651
   22648   22646   22649   22652   22653   22656   22659   22660
   22653   22656   22659   22661   22653   22656   22659   22662
   22654   22653   22656   22657   22654   22653   22656   22658
   22654   22653   22656   22659   22655   22653   22656   22657
   22655   22653   22656   22658   22655   22653   22656   22659
   22656   22659   22662   22663   22656   22659   22662   22664
   22656   22659   22662   22665   22657   22656   22659   22660
   22657   22656   22659   22661   22657   22656   22659   22662
   22658   22656   22659   22660   22658   22656   22659   22661
   22658   22656   22659   22662   22659   22662   22665   22666
   22659   22662   22665   22667   22659   22662   22665   22668
   22660   22659   22662   22663   22660   22659   22662   22664
   22660   22659   22662   22665   22661   22659   22662   22663
   22661   22659   22662   22664   22661   22659   22662   22665
   22662   22665   22668   22669   22662   22665   22668   22670
   22662   22665   22668   22671   22663   22662   22665   22666
   22663   22662   22665   22667   22663   22662   22665   22668
   22664   22662   22665   22666   22664   22662   22665   22667
   22664   22662   22665   22668   22665   22668   22671   22672
   22665   22668   22671   22673   22665   22668   22671   22674
   22666   22665   22668   22669   22666   22665   22668   22670
   22666   22665   22668   22671   22667   22665   22668   22669
   22667   22665   22668   22670   22667   22665   22668   22671
   22668   22671   22674   22675   22668   22671   22674   22676
   22668   22671   22674   22677   22669   22668   22671   22672
   22669   22668   22671   22673   22669   22668   22671   22674
   22670   22668   22671   22672   22670   22668   22671   22673
   22670   22668   22671   22674   22671   22674   22677   22678
   22671   22674   22677   22679   22671   22674   22677   22680
   22672   22671   22674   22675   22672   22671   22674   22676
   22672   22671   22674   22677   22673   22671   22674   22675
   22673   22671   22674   22676   22673   22671   22674   22677
   22674   22677   22680   22681   22674   22677   22680   22682
   22674   22677   22680   22683   22675   22674   22677   22678
   22675   22674   22677   22679   22675   22674   22677   22680
   22676   22674   22677   22678   22676   22674   22677   22679
   22676   22674   22677   22680   22677   22680   22683   22684
   22677   22680   22683   22685   22677   22680   22683   22686
   22678   22677   22680   22681   22678   22677   22680   22682
   22678   22677   22680   22683   22679   22677   22680   22681
   22679   22677   22680   22682   22679   22677   22680   22683
   22680   22683   22686   22687   22680   22683   22686   22688
   22680   22683   22686   22689   22681   22680   22683   22684
   22681   22680   22683   22685   22681   22680   22683   22686
   22682   22680   22683   22684   22682   22680   22683   22685
   22682   22680   22683   22686   22684   22683   22686   22687
   22684   22683   22686   22688   22684   22683   22686   22689
   22685   22683   22686   22687   22685   22683   22686   22688
   22685   22683   22686   22689   22690   22703   22706   22707
   22690   22703   22706   22708   22690   22703   22706   22713
   22691   22690   22695   22696   22691   22690   22695   22697
   22691   22690   22695   22698   22691   22690   22699   22700
   22691   22690   22699   22701   22691   22690   22699   22702
   22691   22690   22703   22704   22691   22690   22703   22705
   22691   22690   22703   22706   22695   22690   22691   22692
   22695   22690   22691   22693   22695   22690   22691   22694
   22695   22690   22699   22700   22695   22690   22699   22701
   22695   22690   22699   22702   22695   22690   22703   22704
   22695   22690   22703   22705   22695   22690   22703   22706
   22699   22690   22691   22692   22699   22690   22691   22693
   22699   22690   22691   22694   22699   22690   22695   22696
   22699   22690   22695   22697   22699   22690   22695   22698
   22699   22690   22703   22704   22699   22690   22703   22705
   22699   22690   22703   22706   22703   22690   22691   22692
   22703   22690   22691   22693   22703   22690   22691   22694
   22703   22690   22695   22696   22703   22690   22695   22697
   22703   22690   22695   22698   22703   22690   22699   22700
   22703   22690   22699   22701   22703   22690   22699   22702
   22703   22706   22713   22709   22704   22703   22706   22707
   22704   22703   22706   22708   22704   22703   22706   22713
   22705   22703   22706   22707   22705   22703   22706   22708
   22705   22703   22706   22713   22707   22706   22713   22709
   22708   22706   22713   22709   22709   22712   22714   22715
   22709   22712   22714   22716   22709   22712   22714   22717
   22710   22709   22713   22706   22710   22709   22712   22714
   22711   22709   22713   22706   22711   22709   22712   22714
   22712   22709   22713   22706   22712   22714   22717   22718
   22712   22714   22717   22725   22712   22714   22717   22719
   22713   22709   22712   22714   22714   22717   22725   22726
   22714   22717   22725   22727   22714   22717   22725   22728
   22714   22717   22719   22720   22715   22714   22717   22718
   22715   22714   22717   22725   22715   22714   22717   22719
   22716   22714   22717   22718   22716   22714   22717   22725
   22716   22714   22717   22719   22717   22725   22728   22729
   22717   22719   22720   22722   22717   22719   22720   22721
   22718   22717   22725   22726   22718   22717   22725   22727
   22718   22717   22725   22728   22718   22717   22719   22720
   22719   22720   22722   22723   22719   22720   22722   22724
   22719   22720   22722   22734   22719   22717   22725   22726
   22719   22717   22725   22727   22719   22717   22725   22728
   22720   22722   22734   22735   22720   22722   22734   22736
   22720   22722   22734   22737   22721   22720   22722   22723
   22721   22720   22722   22724   22721   22720   22722   22734
   22722   22734   22737   22738   22722   22734   22737   22739
   22722   22734   22737   22740   22723   22722   22734   22735
   22723   22722   22734   22736   22723   22722   22734   22737
   22724   22722   22734   22735   22724   22722   22734   22736
   22724   22722   22734   22737   22725   22717   22719   22720
   22725   22728   22729   22731   22725   22728   22729   22730
   22726   22725   22728   22729   22727   22725   22728   22729
   22728   22729   22731   22732   22728   22729   22731   22733
   22728   22729   22731   22771   22729   22731   22771   22772
   22729   22731   22771   22773   22729   22731   22771   22774
   22730   22729   22731   22732   22730   22729   22731   22733
   22730   22729   22731   22771   22731   22771   22774   22775
   22731   22771   22774   22776   22731   22771   22774   22777
   22732   22731   22771   22772   22732   22731   22771   22773
   22732   22731   22771   22774   22733   22731   22771   22772
   22733   22731   22771   22773   22733   22731   22771   22774
   22734   22737   22740   22741   22734   22737   22740   22742
   22734   22737   22740   22743   22735   22734   22737   22738
   22735   22734   22737   22739   22735   22734   22737   22740
   22736   22734   22737   22738   22736   22734   22737   22739
   22736   22734   22737   22740   22737   22740   22743   22744
   22737   22740   22743   22745   22737   22740   22743   22746
   22738   22737   22740   22741   22738   22737   22740   22742
   22738   22737   22740   22743   22739   22737   22740   22741
   22739   22737   22740   22742   22739   22737   22740   22743
   22740   22743   22746   22747   22740   22743   22746   22748
   22740   22743   22746   22749   22741   22740   22743   22744
   22741   22740   22743   22745   22741   22740   22743   22746
   22742   22740   22743   22744   22742   22740   22743   22745
   22742   22740   22743   22746   22743   22746   22749   22750
   22743   22746   22749   22751   22743   22746   22749   22752
   22744   22743   22746   22747   22744   22743   22746   22748
   22744   22743   22746   22749   22745   22743   22746   22747
   22745   22743   22746   22748   22745   22743   22746   22749
   22746   22749   22752   22753   22746   22749   22752   22754
   22746   22749   22752   22755   22747   22746   22749   22750
   22747   22746   22749   22751   22747   22746   22749   22752
   22748   22746   22749   22750   22748   22746   22749   22751
   22748   22746   22749   22752   22749   22752   22755   22756
   22749   22752   22755   22757   22749   22752   22755   22758
   22750   22749   22752   22753   22750   22749   22752   22754
   22750   22749   22752   22755   22751   22749   22752   22753
   22751   22749   22752   22754   22751   22749   22752   22755
   22752   22755   22758   22759   22752   22755   22758   22760
   22752   22755   22758   22761   22753   22752   22755   22756
   22753   22752   22755   22757   22753   22752   22755   22758
   22754   22752   22755   22756   22754   22752   22755   22757
   22754   22752   22755   22758   22755   22758   22761   22762
   22755   22758   22761   22763   22755   22758   22761   22764
   22756   22755   22758   22759   22756   22755   22758   22760
   22756   22755   22758   22761   22757   22755   22758   22759
   22757   22755   22758   22760   22757   22755   22758   22761
   22758   22761   22764   22765   22758   22761   22764   22766
   22758   22761   22764   22767   22759   22758   22761   22762
   22759   22758   22761   22763   22759   22758   22761   22764
   22760   22758   22761   22762   22760   22758   22761   22763
   22760   22758   22761   22764   22761   22764   22767   22768
   22761   22764   22767   22769   22761   22764   22767   22770
   22762   22761   22764   22765   22762   22761   22764   22766
   22762   22761   22764   22767   22763   22761   22764   22765
   22763   22761   22764   22766   22763   22761   22764   22767
   22765   22764   22767   22768   22765   22764   22767   22769
   22765   22764   22767   22770   22766   22764   22767   22768
   22766   22764   22767   22769   22766   22764   22767   22770
   22771   22774   22777   22778   22771   22774   22777   22779
   22771   22774   22777   22780   22772   22771   22774   22775
   22772   22771   22774   22776   22772   22771   22774   22777
   22773   22771   22774   22775   22773   22771   22774   22776
   22773   22771   22774   22777   22774   22777   22780   22781
   22774   22777   22780   22782   22774   22777   22780   22783
   22775   22774   22777   22778   22775   22774   22777   22779
   22775   22774   22777   22780   22776   22774   22777   22778
   22776   22774   22777   22779   22776   22774   22777   22780
   22777   22780   22783   22784   22777   22780   22783   22785
   22777   22780   22783   22786   22778   22777   22780   22781
   22778   22777   22780   22782   22778   22777   22780   22783
   22779   22777   22780   22781   22779   22777   22780   22782
   22779   22777   22780   22783   22780   22783   22786   22787
   22780   22783   22786   22788   22780   22783   22786   22789
   22781   22780   22783   22784   22781   22780   22783   22785
   22781   22780   22783   22786   22782   22780   22783   22784
   22782   22780   22783   22785   22782   22780   22783   22786
   22783   22786   22789   22790   22783   22786   22789   22791
   22783   22786   22789   22792   22784   22783   22786   22787
   22784   22783   22786   22788   22784   22783   22786   22789
   22785   22783   22786   22787   22785   22783   22786   22788
   22785   22783   22786   22789   22786   22789   22792   22793
   22786   22789   22792   22794   22786   22789   22792   22795
   22787   22786   22789   22790   22787   22786   22789   22791
   22787   22786   22789   22792   22788   22786   22789   22790
   22788   22786   22789   22791   22788   22786   22789   22792
   22789   22792   22795   22796   22789   22792   22795   22797
   22789   22792   22795   22798   22790   22789   22792   22793
   22790   22789   22792   22794   22790   22789   22792   22795
   22791   22789   22792   22793   22791   22789   22792   22794
   22791   22789   22792   22795   22792   22795   22798   22799
   22792   22795   22798   22800   22792   22795   22798   22801
   22793   22792   22795   22796   22793   22792   22795   22797
   22793   22792   22795   22798   22794   22792   22795   22796
   22794   22792   22795   22797   22794   22792   22795   22798
   22795   22798   22801   22802   22795   22798   22801   22803
   22795   22798   22801   22804   22796   22795   22798   22799
   22796   22795   22798   22800   22796   22795   22798   22801
   22797   22795   22798   22799   22797   22795   22798   22800
   22797   22795   22798   22801   22798   22801   22804   22805
   22798   22801   22804   22806   22798   22801   22804   22807
   22799   22798   22801   22802   22799   22798   22801   22803
   22799   22798   22801   22804   22800   22798   22801   22802
   22800   22798   22801   22803   22800   22798   22801   22804
   22802   22801   22804   22805   22802   22801   22804   22806
   22802   22801   22804   22807   22803   22801   22804   22805
   22803   22801   22804   22806   22803   22801   22804   22807
   22808   22821   22824   22825   22808   22821   22824   22826
   22808   22821   22824   22831   22809   22808   22813   22814
   22809   22808   22813   22815   22809   22808   22813   22816
   22809   22808   22817   22818   22809   22808   22817   22819
   22809   22808   22817   22820   22809   22808   22821   22822
   22809   22808   22821   22823   22809   22808   22821   22824
   22813   22808   22809   22810   22813   22808   22809   22811
   22813   22808   22809   22812   22813   22808   22817   22818
   22813   22808   22817   22819   22813   22808   22817   22820
   22813   22808   22821   22822   22813   22808   22821   22823
   22813   22808   22821   22824   22817   22808   22809   22810
   22817   22808   22809   22811   22817   22808   22809   22812
   22817   22808   22813   22814   22817   22808   22813   22815
   22817   22808   22813   22816   22817   22808   22821   22822
   22817   22808   22821   22823   22817   22808   22821   22824
   22821   22808   22809   22810   22821   22808   22809   22811
   22821   22808   22809   22812   22821   22808   22813   22814
   22821   22808   22813   22815   22821   22808   22813   22816
   22821   22808   22817   22818   22821   22808   22817   22819
   22821   22808   22817   22820   22821   22824   22831   22827
   22822   22821   22824   22825   22822   22821   22824   22826
   22822   22821   22824   22831   22823   22821   22824   22825
   22823   22821   22824   22826   22823   22821   22824   22831
   22825   22824   22831   22827   22826   22824   22831   22827
   22827   22830   22832   22833   22827   22830   22832   22834
   22827   22830   22832   22835   22828   22827   22831   22824
   22828   22827   22830   22832   22829   22827   22831   22824
   22829   22827   22830   22832   22830   22827   22831   22824
   22830   22832   22835   22836   22830   22832   22835   22843
   22830   22832   22835   22837   22831   22827   22830   22832
   22832   22835   22843   22844   22832   22835   22843   22845
   22832   22835   22843   22846   22832   22835   22837   22838
   22833   22832   22835   22836   22833   22832   22835   22843
   22833   22832   22835   22837   22834   22832   22835   22836
   22834   22832   22835   22843   22834   22832   22835   22837
   22835   22843   22846   22847   22835   22837   22838   22840
   22835   22837   22838   22839   22836   22835   22843   22844
   22836   22835   22843   22845   22836   22835   22843   22846
   22836   22835   22837   22838   22837   22838   22840   22841
   22837   22838   22840   22842   22837   22838   22840   22852
   22837   22835   22843   22844   22837   22835   22843   22845
   22837   22835   22843   22846   22838   22840   22852   22853
   22838   22840   22852   22854   22838   22840   22852   22855
   22839   22838   22840   22841   22839   22838   22840   22842
   22839   22838   22840   22852   22840   22852   22855   22856
   22840   22852   22855   22857   22840   22852   22855   22858
   22841   22840   22852   22853   22841   22840   22852   22854
   22841   22840   22852   22855   22842   22840   22852   22853
   22842   22840   22852   22854   22842   22840   22852   22855
   22843   22835   22837   22838   22843   22846   22847   22849
   22843   22846   22847   22848   22844   22843   22846   22847
   22845   22843   22846   22847   22846   22847   22849   22850
   22846   22847   22849   22851   22846   22847   22849   22889
   22847   22849   22889   22890   22847   22849   22889   22891
   22847   22849   22889   22892   22848   22847   22849   22850
   22848   22847   22849   22851   22848   22847   22849   22889
   22849   22889   22892   22893   22849   22889   22892   22894
   22849   22889   22892   22895   22850   22849   22889   22890
   22850   22849   22889   22891   22850   22849   22889   22892
   22851   22849   22889   22890   22851   22849   22889   22891
   22851   22849   22889   22892   22852   22855   22858   22859
   22852   22855   22858   22860   22852   22855   22858   22861
   22853   22852   22855   22856   22853   22852   22855   22857
   22853   22852   22855   22858   22854   22852   22855   22856
   22854   22852   22855   22857   22854   22852   22855   22858
   22855   22858   22861   22862   22855   22858   22861   22863
   22855   22858   22861   22864   22856   22855   22858   22859
   22856   22855   22858   22860   22856   22855   22858   22861
   22857   22855   22858   22859   22857   22855   22858   22860
   22857   22855   22858   22861   22858   22861   22864   22865
   22858   22861   22864   22866   22858   22861   22864   22867
   22859   22858   22861   22862   22859   22858   22861   22863
   22859   22858   22861   22864   22860   22858   22861   22862
   22860   22858   22861   22863   22860   22858   22861   22864
   22861   22864   22867   22868   22861   22864   22867   22869
   22861   22864   22867   22870   22862   22861   22864   22865
   22862   22861   22864   22866   22862   22861   22864   22867
   22863   22861   22864   22865   22863   22861   22864   22866
   22863   22861   22864   22867   22864   22867   22870   22871
   22864   22867   22870   22872   22864   22867   22870   22873
   22865   22864   22867   22868   22865   22864   22867   22869
   22865   22864   22867   22870   22866   22864   22867   22868
   22866   22864   22867   22869   22866   22864   22867   22870
   22867   22870   22873   22874   22867   22870   22873   22875
   22867   22870   22873   22876   22868   22867   22870   22871
   22868   22867   22870   22872   22868   22867   22870   22873
   22869   22867   22870   22871   22869   22867   22870   22872
   22869   22867   22870   22873   22870   22873   22876   22877
   22870   22873   22876   22878   22870   22873   22876   22879
   22871   22870   22873   22874   22871   22870   22873   22875
   22871   22870   22873   22876   22872   22870   22873   22874
   22872   22870   22873   22875   22872   22870   22873   22876
   22873   22876   22879   22880   22873   22876   22879   22881
   22873   22876   22879   22882   22874   22873   22876   22877
   22874   22873   22876   22878   22874   22873   22876   22879
   22875   22873   22876   22877   22875   22873   22876   22878
   22875   22873   22876   22879   22876   22879   22882   22883
   22876   22879   22882   22884   22876   22879   22882   22885
   22877   22876   22879   22880   22877   22876   22879   22881
   22877   22876   22879   22882   22878   22876   22879   22880
   22878   22876   22879   22881   22878   22876   22879   22882
   22879   22882   22885   22886   22879   22882   22885   22887
   22879   22882   22885   22888   22880   22879   22882   22883
   22880   22879   22882   22884   22880   22879   22882   22885
   22881   22879   22882   22883   22881   22879   22882   22884
   22881   22879   22882   22885   22883   22882   22885   22886
   22883   22882   22885   22887   22883   22882   22885   22888
   22884   22882   22885   22886   22884   22882   22885   22887
   22884   22882   22885   22888   22889   22892   22895   22896
   22889   22892   22895   22897   22889   22892   22895   22898
   22890   22889   22892   22893   22890   22889   22892   22894
   22890   22889   22892   22895   22891   22889   22892   22893
   22891   22889   22892   22894   22891   22889   22892   22895
   22892   22895   22898   22899   22892   22895   22898   22900
   22892   22895   22898   22901   22893   22892   22895   22896
   22893   22892   22895   22897   22893   22892   22895   22898
   22894   22892   22895   22896   22894   22892   22895   22897
   22894   22892   22895   22898   22895   22898   22901   22902
   22895   22898   22901   22903   22895   22898   22901   22904
   22896   22895   22898   22899   22896   22895   22898   22900
   22896   22895   22898   22901   22897   22895   22898   22899
   22897   22895   22898   22900   22897   22895   22898   22901
   22898   22901   22904   22905   22898   22901   22904   22906
   22898   22901   22904   22907   22899   22898   22901   22902
   22899   22898   22901   22903   22899   22898   22901   22904
   22900   22898   22901   22902   22900   22898   22901   22903
   22900   22898   22901   22904   22901   22904   22907   22908
   22901   22904   22907   22909   22901   22904   22907   22910
   22902   22901   22904   22905   22902   22901   22904   22906
   22902   22901   22904   22907   22903   22901   22904   22905
   22903   22901   22904   22906   22903   22901   22904   22907
   22904   22907   22910   22911   22904   22907   22910   22912
   22904   22907   22910   22913   22905   22904   22907   22908
   22905   22904   22907   22909   22905   22904   22907   22910
   22906   22904   22907   22908   22906   22904   22907   22909
   22906   22904   22907   22910   22907   22910   22913   22914
   22907   22910   22913   22915   22907   22910   22913   22916
   22908   22907   22910   22911   22908   22907   22910   22912
   22908   22907   22910   22913   22909   22907   22910   22911
   22909   22907   22910   22912   22909   22907   22910   22913
   22910   22913   22916   22917   22910   22913   22916   22918
   22910   22913   22916   22919   22911   22910   22913   22914
   22911   22910   22913   22915   22911   22910   22913   22916
   22912   22910   22913   22914   22912   22910   22913   22915
   22912   22910   22913   22916   22913   22916   22919   22920
   22913   22916   22919   22921   22913   22916   22919   22922
   22914   22913   22916   22917   22914   22913   22916   22918
   22914   22913   22916   22919   22915   22913   22916   22917
   22915   22913   22916   22918   22915   22913   22916   22919
   22916   22919   22922   22923   22916   22919   22922   22924
   22916   22919   22922   22925   22917   22916   22919   22920
   22917   22916   22919   22921   22917   22916   22919   22922
   22918   22916   22919   22920   22918   22916   22919   22921
   22918   22916   22919   22922   22920   22919   22922   22923
   22920   22919   22922   22924   22920   22919   22922   22925
   22921   22919   22922   22923   22921   22919   22922   22924
   22921   22919   22922   22925   22926   22939   22942   22943
   22926   22939   22942   22944   22926   22939   22942   22949
   22927   22926   22931   22932   22927   22926   22931   22933
   22927   22926   22931   22934   22927   22926   22935   22936
   22927   22926   22935   22937   22927   22926   22935   22938
   22927   22926   22939   22940   22927   22926   22939   22941
   22927   22926   22939   22942   22931   22926   22927   22928
   22931   22926   22927   22929   22931   22926   22927   22930
   22931   22926   22935   22936   22931   22926   22935   22937
   22931   22926   22935   22938   22931   22926   22939   22940
   22931   22926   22939   22941   22931   22926   22939   22942
   22935   22926   22927   22928   22935   22926   22927   22929
   22935   22926   22927   22930   22935   22926   22931   22932
   22935   22926   22931   22933   22935   22926   22931   22934
   22935   22926   22939   22940   22935   22926   22939   22941
   22935   22926   22939   22942   22939   22926   22927   22928
   22939   22926   22927   22929   22939   22926   22927   22930
   22939   22926   22931   22932   22939   22926   22931   22933
   22939   22926   22931   22934   22939   22926   22935   22936
   22939   22926   22935   22937   22939   22926   22935   22938
   22939   22942   22949   22945   22940   22939   22942   22943
   22940   22939   22942   22944   22940   22939   22942   22949
   22941   22939   22942   22943   22941   22939   22942   22944
   22941   22939   22942   22949   22943   22942   22949   22945
   22944   22942   22949   22945   22945   22948   22950   22951
   22945   22948   22950   22952   22945   22948   22950   22953
   22946   22945   22949   22942   22946   22945   22948   22950
   22947   22945   22949   22942   22947   22945   22948   22950
   22948   22945   22949   22942   22948   22950   22953   22954
   22948   22950   22953   22961   22948   22950   22953   22955
   22949   22945   22948   22950   22950   22953   22961   22962
   22950   22953   22961   22963   22950   22953   22961   22964
   22950   22953   22955   22956   22951   22950   22953   22954
   22951   22950   22953   22961   22951   22950   22953   22955
   22952   22950   22953   22954   22952   22950   22953   22961
   22952   22950   22953   22955   22953   22961   22964   22965
   22953   22955   22956   22958   22953   22955   22956   22957
   22954   22953   22961   22962   22954   22953   22961   22963
   22954   22953   22961   22964   22954   22953   22955   22956
   22955   22956   22958   22959   22955   22956   22958   22960
   22955   22956   22958   22970   22955   22953   22961   22962
   22955   22953   22961   22963   22955   22953   22961   22964
   22956   22958   22970   22971   22956   22958   22970   22972
   22956   22958   22970   22973   22957   22956   22958   22959
   22957   22956   22958   22960   22957   22956   22958   22970
   22958   22970   22973   22974   22958   22970   22973   22975
   22958   22970   22973   22976   22959   22958   22970   22971
   22959   22958   22970   22972   22959   22958   22970   22973
   22960   22958   22970   22971   22960   22958   22970   22972
   22960   22958   22970   22973   22961   22953   22955   22956
   22961   22964   22965   22967   22961   22964   22965   22966
   22962   22961   22964   22965   22963   22961   22964   22965
   22964   22965   22967   22968   22964   22965   22967   22969
   22964   22965   22967   23007   22965   22967   23007   23008
   22965   22967   23007   23009   22965   22967   23007   23010
   22966   22965   22967   22968   22966   22965   22967   22969
   22966   22965   22967   23007   22967   23007   23010   23011
   22967   23007   23010   23012   22967   23007   23010   23013
   22968   22967   23007   23008   22968   22967   23007   23009
   22968   22967   23007   23010   22969   22967   23007   23008
   22969   22967   23007   23009   22969   22967   23007   23010
   22970   22973   22976   22977   22970   22973   22976   22978
   22970   22973   22976   22979   22971   22970   22973   22974
   22971   22970   22973   22975   22971   22970   22973   22976
   22972   22970   22973   22974   22972   22970   22973   22975
   22972   22970   22973   22976   22973   22976   22979   22980
   22973   22976   22979   22981   22973   22976   22979   22982
   22974   22973   22976   22977   22974   22973   22976   22978
   22974   22973   22976   22979   22975   22973   22976   22977
   22975   22973   22976   22978   22975   22973   22976   22979
   22976   22979   22982   22983   22976   22979   22982   22984
   22976   22979   22982   22985   22977   22976   22979   22980
   22977   22976   22979   22981   22977   22976   22979   22982
   22978   22976   22979   22980   22978   22976   22979   22981
   22978   22976   22979   22982   22979   22982   22985   22986
   22979   22982   22985   22987   22979   22982   22985   22988
   22980   22979   22982   22983   22980   22979   22982   22984
   22980   22979   22982   22985   22981   22979   22982   22983
   22981   22979   22982   22984   22981   22979   22982   22985
   22982   22985   22988   22989   22982   22985   22988   22990
   22982   22985   22988   22991   22983   22982   22985   22986
   22983   22982   22985   22987   22983   22982   22985   22988
   22984   22982   22985   22986   22984   22982   22985   22987
   22984   22982   22985   22988   22985   22988   22991   22992
   22985   22988   22991   22993   22985   22988   22991   22994
   22986   22985   22988   22989   22986   22985   22988   22990
   22986   22985   22988   22991   22987   22985   22988   22989
   22987   22985   22988   22990   22987   22985   22988   22991
   22988   22991   22994   22995   22988   22991   22994   22996
   22988   22991   22994   22997   22989   22988   22991   22992
   22989   22988   22991   22993   22989   22988   22991   22994
   22990   22988   22991   22992   22990   22988   22991   22993
   22990   22988   22991   22994   22991   22994   22997   22998
   22991   22994   22997   22999   22991   22994   22997   23000
   22992   22991   22994   22995   22992   22991   22994   22996
   22992   22991   22994   22997   22993   22991   22994   22995
   22993   22991   22994   22996   22993   22991   22994   22997
   22994   22997   23000   23001   22994   22997   23000   23002
   22994   22997   23000   23003   22995   22994   22997   22998
   22995   22994   22997   22999   22995   22994   22997   23000
   22996   22994   22997   22998   22996   22994   22997   22999
   22996   22994   22997   23000   22997   23000   23003   23004
   22997   23000   23003   23005   22997   23000   23003   23006
   22998   22997   23000   23001   22998   22997   23000   23002
   22998   22997   23000   23003   22999   22997   23000   23001
   22999   22997   23000   23002   22999   22997   23000   23003
   23001   23000   23003   23004   23001   23000   23003   23005
   23001   23000   23003   23006   23002   23000   23003   23004
   23002   23000   23003   23005   23002   23000   23003   23006
   23007   23010   23013   23014   23007   23010   23013   23015
   23007   23010   23013   23016   23008   23007   23010   23011
   23008   23007   23010   23012   23008   23007   23010   23013
   23009   23007   23010   23011   23009   23007   23010   23012
   23009   23007   23010   23013   23010   23013   23016   23017
   23010   23013   23016   23018   23010   23013   23016   23019
   23011   23010   23013   23014   23011   23010   23013   23015
   23011   23010   23013   23016   23012   23010   23013   23014
   23012   23010   23013   23015   23012   23010   23013   23016
   23013   23016   23019   23020   23013   23016   23019   23021
   23013   23016   23019   23022   23014   23013   23016   23017
   23014   23013   23016   23018   23014   23013   23016   23019
   23015   23013   23016   23017   23015   23013   23016   23018
   23015   23013   23016   23019   23016   23019   23022   23023
   23016   23019   23022   23024   23016   23019   23022   23025
   23017   23016   23019   23020   23017   23016   23019   23021
   23017   23016   23019   23022   23018   23016   23019   23020
   23018   23016   23019   23021   23018   23016   23019   23022
   23019   23022   23025   23026   23019   23022   23025   23027
   23019   23022   23025   23028   23020   23019   23022   23023
   23020   23019   23022   23024   23020   23019   23022   23025
   23021   23019   23022   23023   23021   23019   23022   23024
   23021   23019   23022   23025   23022   23025   23028   23029
   23022   23025   23028   23030   23022   23025   23028   23031
   23023   23022   23025   23026   23023   23022   23025   23027
   23023   23022   23025   23028   23024   23022   23025   23026
   23024   23022   23025   23027   23024   23022   23025   23028
   23025   23028   23031   23032   23025   23028   23031   23033
   23025   23028   23031   23034   23026   23025   23028   23029
   23026   23025   23028   23030   23026   23025   23028   23031
   23027   23025   23028   23029   23027   23025   23028   23030
   23027   23025   23028   23031   23028   23031   23034   23035
   23028   23031   23034   23036   23028   23031   23034   23037
   23029   23028   23031   23032   23029   23028   23031   23033
   23029   23028   23031   23034   23030   23028   23031   23032
   23030   23028   23031   23033   23030   23028   23031   23034
   23031   23034   23037   23038   23031   23034   23037   23039
   23031   23034   23037   23040   23032   23031   23034   23035
   23032   23031   23034   23036   23032   23031   23034   23037
   23033   23031   23034   23035   23033   23031   23034   23036
   23033   23031   23034   23037   23034   23037   23040   23041
   23034   23037   23040   23042   23034   23037   23040   23043
   23035   23034   23037   23038   23035   23034   23037   23039
   23035   23034   23037   23040   23036   23034   23037   23038
   23036   23034   23037   23039   23036   23034   23037   23040
   23038   23037   23040   23041   23038   23037   23040   23042
   23038   23037   23040   23043   23039   23037   23040   23041
   23039   23037   23040   23042   23039   23037   23040   23043
   23044   23057   23060   23061   23044   23057   23060   23062
   23044   23057   23060   23067   23045   23044   23049   23050
   23045   23044   23049   23051   23045   23044   23049   23052
   23045   23044   23053   23054   23045   23044   23053   23055
   23045   23044   23053   23056   23045   23044   23057   23058
   23045   23044   23057   23059   23045   23044   23057   23060
   23049   23044   23045   23046   23049   23044   23045   23047
   23049   23044   23045   23048   23049   23044   23053   23054
   23049   23044   23053   23055   23049   23044   23053   23056
   23049   23044   23057   23058   23049   23044   23057   23059
   23049   23044   23057   23060   23053   23044   23045   23046
   23053   23044   23045   23047   23053   23044   23045   23048
   23053   23044   23049   23050   23053   23044   23049   23051
   23053   23044   23049   23052   23053   23044   23057   23058
   23053   23044   23057   23059   23053   23044   23057   23060
   23057   23044   23045   23046   23057   23044   23045   23047
   23057   23044   23045   23048   23057   23044   23049   23050
   23057   23044   23049   23051   23057   23044   23049   23052
   23057   23044   23053   23054   23057   23044   23053   23055
   23057   23044   23053   23056   23057   23060   23067   23063
   23058   23057   23060   23061   23058   23057   23060   23062
   23058   23057   23060   23067   23059   23057   23060   23061
   23059   23057   23060   23062   23059   23057   23060   23067
   23061   23060   23067   23063   23062   23060   23067   23063
   23063   23066   23068   23069   23063   23066   23068   23070
   23063   23066   23068   23071   23064   23063   23067   23060
   23064   23063   23066   23068   23065   23063   23067   23060
   23065   23063   23066   23068   23066   23063   23067   23060
   23066   23068   23071   23072   23066   23068   23071   23079
   23066   23068   23071   23073   23067   23063   23066   23068
   23068   23071   23079   23080   23068   23071   23079   23081
   23068   23071   23079   23082   23068   23071   23073   23074
   23069   23068   23071   23072   23069   23068   23071   23079
   23069   23068   23071   23073   23070   23068   23071   23072
   23070   23068   23071   23079   23070   23068   23071   23073
   23071   23079   23082   23083   23071   23073   23074   23076
   23071   23073   23074   23075   23072   23071   23079   23080
   23072   23071   23079   23081   23072   23071   23079   23082
   23072   23071   23073   23074   23073   23074   23076   23077
   23073   23074   23076   23078   23073   23074   23076   23088
   23073   23071   23079   23080   23073   23071   23079   23081
   23073   23071   23079   23082   23074   23076   23088   23089
   23074   23076   23088   23090   23074   23076   23088   23091
   23075   23074   23076   23077   23075   23074   23076   23078
   23075   23074   23076   23088   23076   23088   23091   23092
   23076   23088   23091   23093   23076   23088   23091   23094
   23077   23076   23088   23089   23077   23076   23088   23090
   23077   23076   23088   23091   23078   23076   23088   23089
   23078   23076   23088   23090   23078   23076   23088   23091
   23079   23071   23073   23074   23079   23082   23083   23085
   23079   23082   23083   23084   23080   23079   23082   23083
   23081   23079   23082   23083   23082   23083   23085   23086
   23082   23083   23085   23087   23082   23083   23085   23125
   23083   23085   23125   23126   23083   23085   23125   23127
   23083   23085   23125   23128   23084   23083   23085   23086
   23084   23083   23085   23087   23084   23083   23085   23125
   23085   23125   23128   23129   23085   23125   23128   23130
   23085   23125   23128   23131   23086   23085   23125   23126
   23086   23085   23125   23127   23086   23085   23125   23128
   23087   23085   23125   23126   23087   23085   23125   23127
   23087   23085   23125   23128   23088   23091   23094   23095
   23088   23091   23094   23096   23088   23091   23094   23097
   23089   23088   23091   23092   23089   23088   23091   23093
   23089   23088   23091   23094   23090   23088   23091   23092
   23090   23088   23091   23093   23090   23088   23091   23094
   23091   23094   23097   23098   23091   23094   23097   23099
   23091   23094   23097   23100   23092   23091   23094   23095
   23092   23091   23094   23096   23092   23091   23094   23097
   23093   23091   23094   23095   23093   23091   23094   23096
   23093   23091   23094   23097   23094   23097   23100   23101
   23094   23097   23100   23102   23094   23097   23100   23103
   23095   23094   23097   23098   23095   23094   23097   23099
   23095   23094   23097   23100   23096   23094   23097   23098
   23096   23094   23097   23099   23096   23094   23097   23100
   23097   23100   23103   23104   23097   23100   23103   23105
   23097   23100   23103   23106   23098   23097   23100   23101
   23098   23097   23100   23102   23098   23097   23100   23103
   23099   23097   23100   23101   23099   23097   23100   23102
   23099   23097   23100   23103   23100   23103   23106   23107
   23100   23103   23106   23108   23100   23103   23106   23109
   23101   23100   23103   23104   23101   23100   23103   23105
   23101   23100   23103   23106   23102   23100   23103   23104
   23102   23100   23103   23105   23102   23100   23103   23106
   23103   23106   23109   23110   23103   23106   23109   23111
   23103   23106   23109   23112   23104   23103   23106   23107
   23104   23103   23106   23108   23104   23103   23106   23109
   23105   23103   23106   23107   23105   23103   23106   23108
   23105   23103   23106   23109   23106   23109   23112   23113
   23106   23109   23112   23114   23106   23109   23112   23115
   23107   23106   23109   23110   23107   23106   23109   23111
   23107   23106   23109   23112   23108   23106   23109   23110
   23108   23106   23109   23111   23108   23106   23109   23112
   23109   23112   23115   23116   23109   23112   23115   23117
   23109   23112   23115   23118   23110   23109   23112   23113
   23110   23109   23112   23114   23110   23109   23112   23115
   23111   23109   23112   23113   23111   23109   23112   23114
   23111   23109   23112   23115   23112   23115   23118   23119
   23112   23115   23118   23120   23112   23115   23118   23121
   23113   23112   23115   23116   23113   23112   23115   23117
   23113   23112   23115   23118   23114   23112   23115   23116
   23114   23112   23115   23117   23114   23112   23115   23118
   23115   23118   23121   23122   23115   23118   23121   23123
   23115   23118   23121   23124   23116   23115   23118   23119
   23116   23115   23118   23120   23116   23115   23118   23121
   23117   23115   23118   23119   23117   23115   23118   23120
   23117   23115   23118   23121   23119   23118   23121   23122
   23119   23118   23121   23123   23119   23118   23121   23124
   23120   23118   23121   23122   23120   23118   23121   23123
   23120   23118   23121   23124   23125   23128   23131   23132
   23125   23128   23131   23133   23125   23128   23131   23134
   23126   23125   23128   23129   23126   23125   23128   23130
   23126   23125   23128   23131   23127   23125   23128   23129
   23127   23125   23128   23130   23127   23125   23128   23131
   23128   23131   23134   23135   23128   23131   23134   23136
   23128   23131   23134   23137   23129   23128   23131   23132
   23129   23128   23131   23133   23129   23128   23131   23134
   23130   23128   23131   23132   23130   23128   23131   23133
   23130   23128   23131   23134   23131   23134   23137   23138
   23131   23134   23137   23139   23131   23134   23137   23140
   23132   23131   23134   23135   23132   23131   23134   23136
   23132   23131   23134   23137   23133   23131   23134   23135
   23133   23131   23134   23136   23133   23131   23134   23137
   23134   23137   23140   23141   23134   23137   23140   23142
   23134   23137   23140   23143   23135   23134   23137   23138
   23135   23134   23137   23139   23135   23134   23137   23140
   23136   23134   23137   23138   23136   23134   23137   23139
   23136   23134   23137   23140   23137   23140   23143   23144
   23137   23140   23143   23145   23137   23140   23143   23146
   23138   23137   23140   23141   23138   23137   23140   23142
   23138   23137   23140   23143   23139   23137   23140   23141
   23139   23137   23140   23142   23139   23137   23140   23143
   23140   23143   23146   23147   23140   23143   23146   23148
   23140   23143   23146   23149   23141   23140   23143   23144
   23141   23140   23143   23145   23141   23140   23143   23146
   23142   23140   23143   23144   23142   23140   23143   23145
   23142   23140   23143   23146   23143   23146   23149   23150
   23143   23146   23149   23151   23143   23146   23149   23152
   23144   23143   23146   23147   23144   23143   23146   23148
   23144   23143   23146   23149   23145   23143   23146   23147
   23145   23143   23146   23148   23145   23143   23146   23149
   23146   23149   23152   23153   23146   23149   23152   23154
   23146   23149   23152   23155   23147   23146   23149   23150
   23147   23146   23149   23151   23147   23146   23149   23152
   23148   23146   23149   23150   23148   23146   23149   23151
   23148   23146   23149   23152   23149   23152   23155   23156
   23149   23152   23155   23157   23149   23152   23155   23158
   23150   23149   23152   23153   23150   23149   23152   23154
   23150   23149   23152   23155   23151   23149   23152   23153
   23151   23149   23152   23154   23151   23149   23152   23155
   23152   23155   23158   23159   23152   23155   23158   23160
   23152   23155   23158   23161   23153   23152   23155   23156
   23153   23152   23155   23157   23153   23152   23155   23158
   23154   23152   23155   23156   23154   23152   23155   23157
   23154   23152   23155   23158   23156   23155   23158   23159
   23156   23155   23158   23160   23156   23155   23158   23161
   23157   23155   23158   23159   23157   23155   23158   23160
   23157   23155   23158   23161   23162   23175   23178   23179
   23162   23175   23178   23180   23162   23175   23178   23185
   23163   23162   23167   23168   23163   23162   23167   23169
   23163   23162   23167   23170   23163   23162   23171   23172
   23163   23162   23171   23173   23163   23162   23171   23174
   23163   23162   23175   23176   23163   23162   23175   23177
   23163   23162   23175   23178   23167   23162   23163   23164
   23167   23162   23163   23165   23167   23162   23163   23166
   23167   23162   23171   23172   23167   23162   23171   23173
   23167   23162   23171   23174   23167   23162   23175   23176
   23167   23162   23175   23177   23167   23162   23175   23178
   23171   23162   23163   23164   23171   23162   23163   23165
   23171   23162   23163   23166   23171   23162   23167   23168
   23171   23162   23167   23169   23171   23162   23167   23170
   23171   23162   23175   23176   23171   23162   23175   23177
   23171   23162   23175   23178   23175   23162   23163   23164
   23175   23162   23163   23165   23175   23162   23163   23166
   23175   23162   23167   23168   23175   23162   23167   23169
   23175   23162   23167   23170   23175   23162   23171   23172
   23175   23162   23171   23173   23175   23162   23171   23174
   23175   23178   23185   23181   23176   23175   23178   23179
   23176   23175   23178   23180   23176   23175   23178   23185
   23177   23175   23178   23179   23177   23175   23178   23180
   23177   23175   23178   23185   23179   23178   23185   23181
   23180   23178   23185   23181   23181   23184   23186   23187
   23181   23184   23186   23188   23181   23184   23186   23189
   23182   23181   23185   23178   23182   23181   23184   23186
   23183   23181   23185   23178   23183   23181   23184   23186
   23184   23181   23185   23178   23184   23186   23189   23190
   23184   23186   23189   23197   23184   23186   23189   23191
   23185   23181   23184   23186   23186   23189   23197   23198
   23186   23189   23197   23199   23186   23189   23197   23200
   23186   23189   23191   23192   23187   23186   23189   23190
   23187   23186   23189   23197   23187   23186   23189   23191
   23188   23186   23189   23190   23188   23186   23189   23197
   23188   23186   23189   23191   23189   23197   23200   23201
   23189   23191   23192   23194   23189   23191   23192   23193
   23190   23189   23197   23198   23190   23189   23197   23199
   23190   23189   23197   23200   23190   23189   23191   23192
   23191   23192   23194   23195   23191   23192   23194   23196
   23191   23192   23194   23206   23191   23189   23197   23198
   23191   23189   23197   23199   23191   23189   23197   23200
   23192   23194   23206   23207   23192   23194   23206   23208
   23192   23194   23206   23209   23193   23192   23194   23195
   23193   23192   23194   23196   23193   23192   23194   23206
   23194   23206   23209   23210   23194   23206   23209   23211
   23194   23206   23209   23212   23195   23194   23206   23207
   23195   23194   23206   23208   23195   23194   23206   23209
   23196   23194   23206   23207   23196   23194   23206   23208
   23196   23194   23206   23209   23197   23189   23191   23192
   23197   23200   23201   23203   23197   23200   23201   23202
   23198   23197   23200   23201   23199   23197   23200   23201
   23200   23201   23203   23204   23200   23201   23203   23205
   23200   23201   23203   23243   23201   23203   23243   23244
   23201   23203   23243   23245   23201   23203   23243   23246
   23202   23201   23203   23204   23202   23201   23203   23205
   23202   23201   23203   23243   23203   23243   23246   23247
   23203   23243   23246   23248   23203   23243   23246   23249
   23204   23203   23243   23244   23204   23203   23243   23245
   23204   23203   23243   23246   23205   23203   23243   23244
   23205   23203   23243   23245   23205   23203   23243   23246
   23206   23209   23212   23213   23206   23209   23212   23214
   23206   23209   23212   23215   23207   23206   23209   23210
   23207   23206   23209   23211   23207   23206   23209   23212
   23208   23206   23209   23210   23208   23206   23209   23211
   23208   23206   23209   23212   23209   23212   23215   23216
   23209   23212   23215   23217   23209   23212   23215   23218
   23210   23209   23212   23213   23210   23209   23212   23214
   23210   23209   23212   23215   23211   23209   23212   23213
   23211   23209   23212   23214   23211   23209   23212   23215
   23212   23215   23218   23219   23212   23215   23218   23220
   23212   23215   23218   23221   23213   23212   23215   23216
   23213   23212   23215   23217   23213   23212   23215   23218
   23214   23212   23215   23216   23214   23212   23215   23217
   23214   23212   23215   23218   23215   23218   23221   23222
   23215   23218   23221   23223   23215   23218   23221   23224
   23216   23215   23218   23219   23216   23215   23218   23220
   23216   23215   23218   23221   23217   23215   23218   23219
   23217   23215   23218   23220   23217   23215   23218   23221
   23218   23221   23224   23225   23218   23221   23224   23226
   23218   23221   23224   23227   23219   23218   23221   23222
   23219   23218   23221   23223   23219   23218   23221   23224
   23220   23218   23221   23222   23220   23218   23221   23223
   23220   23218   23221   23224   23221   23224   23227   23228
   23221   23224   23227   23229   23221   23224   23227   23230
   23222   23221   23224   23225   23222   23221   23224   23226
   23222   23221   23224   23227   23223   23221   23224   23225
   23223   23221   23224   23226   23223   23221   23224   23227
   23224   23227   23230   23231   23224   23227   23230   23232
   23224   23227   23230   23233   23225   23224   23227   23228
   23225   23224   23227   23229   23225   23224   23227   23230
   23226   23224   23227   23228   23226   23224   23227   23229
   23226   23224   23227   23230   23227   23230   23233   23234
   23227   23230   23233   23235   23227   23230   23233   23236
   23228   23227   23230   23231   23228   23227   23230   23232
   23228   23227   23230   23233   23229   23227   23230   23231
   23229   23227   23230   23232   23229   23227   23230   23233
   23230   23233   23236   23237   23230   23233   23236   23238
   23230   23233   23236   23239   23231   23230   23233   23234
   23231   23230   23233   23235   23231   23230   23233   23236
   23232   23230   23233   23234   23232   23230   23233   23235
   23232   23230   23233   23236   23233   23236   23239   23240
   23233   23236   23239   23241   23233   23236   23239   23242
   23234   23233   23236   23237   23234   23233   23236   23238
   23234   23233   23236   23239   23235   23233   23236   23237
   23235   23233   23236   23238   23235   23233   23236   23239
   23237   23236   23239   23240   23237   23236   23239   23241
   23237   23236   23239   23242   23238   23236   23239   23240
   23238   23236   23239   23241   23238   23236   23239   23242
   23243   23246   23249   23250   23243   23246   23249   23251
   23243   23246   23249   23252   23244   23243   23246   23247
   23244   23243   23246   23248   23244   23243   23246   23249
   23245   23243   23246   23247   23245   23243   23246   23248
   23245   23243   23246   23249   23246   23249   23252   23253
   23246   23249   23252   23254   23246   23249   23252   23255
   23247   23246   23249   23250   23247   23246   23249   23251
   23247   23246   23249   23252   23248   23246   23249   23250
   23248   23246   23249   23251   23248   23246   23249   23252
   23249   23252   23255   23256   23249   23252   23255   23257
   23249   23252   23255   23258   23250   23249   23252   23253
   23250   23249   23252   23254   23250   23249   23252   23255
   23251   23249   23252   23253   23251   23249   23252   23254
   23251   23249   23252   23255   23252   23255   23258   23259
   23252   23255   23258   23260   23252   23255   23258   23261
   23253   23252   23255   23256   23253   23252   23255   23257
   23253   23252   23255   23258   23254   23252   23255   23256
   23254   23252   23255   23257   23254   23252   23255   23258
   23255   23258   23261   23262   23255   23258   23261   23263
   23255   23258   23261   23264   23256   23255   23258   23259
   23256   23255   23258   23260   23256   23255   23258   23261
   23257   23255   23258   23259   23257   23255   23258   23260
   23257   23255   23258   23261   23258   23261   23264   23265
   23258   23261   23264   23266   23258   23261   23264   23267
   23259   23258   23261   23262   23259   23258   23261   23263
   23259   23258   23261   23264   23260   23258   23261   23262
   23260   23258   23261   23263   23260   23258   23261   23264
   23261   23264   23267   23268   23261   23264   23267   23269
   23261   23264   23267   23270   23262   23261   23264   23265
   23262   23261   23264   23266   23262   23261   23264   23267
   23263   23261   23264   23265   23263   23261   23264   23266
   23263   23261   23264   23267   23264   23267   23270   23271
   23264   23267   23270   23272   23264   23267   23270   23273
   23265   23264   23267   23268   23265   23264   23267   23269
   23265   23264   23267   23270   23266   23264   23267   23268
   23266   23264   23267   23269   23266   23264   23267   23270
   23267   23270   23273   23274   23267   23270   23273   23275
   23267   23270   23273   23276   23268   23267   23270   23271
   23268   23267   23270   23272   23268   23267   23270   23273
   23269   23267   23270   23271   23269   23267   23270   23272
   23269   23267   23270   23273   23270   23273   23276   23277
   23270   23273   23276   23278   23270   23273   23276   23279
   23271   23270   23273   23274   23271   23270   23273   23275
   23271   23270   23273   23276   23272   23270   23273   23274
   23272   23270   23273   23275   23272   23270   23273   23276
   23274   23273   23276   23277   23274   23273   23276   23278
   23274   23273   23276   23279   23275   23273   23276   23277
   23275   23273   23276   23278   23275   23273   23276   23279
   23280   23293   23296   23297   23280   23293   23296   23298
   23280   23293   23296   23303   23281   23280   23285   23286
   23281   23280   23285   23287   23281   23280   23285   23288
   23281   23280   23289   23290   23281   23280   23289   23291
   23281   23280   23289   23292   23281   23280   23293   23294
   23281   23280   23293   23295   23281   23280   23293   23296
   23285   23280   23281   23282   23285   23280   23281   23283
   23285   23280   23281   23284   23285   23280   23289   23290
   23285   23280   23289   23291   23285   23280   23289   23292
   23285   23280   23293   23294   23285   23280   23293   23295
   23285   23280   23293   23296   23289   23280   23281   23282
   23289   23280   23281   23283   23289   23280   23281   23284
   23289   23280   23285   23286   23289   23280   23285   23287
   23289   23280   23285   23288   23289   23280   23293   23294
   23289   23280   23293   23295   23289   23280   23293   23296
   23293   23280   23281   23282   23293   23280   23281   23283
   23293   23280   23281   23284   23293   23280   23285   23286
   23293   23280   23285   23287   23293   23280   23285   23288
   23293   23280   23289   23290   23293   23280   23289   23291
   23293   23280   23289   23292   23293   23296   23303   23299
   23294   23293   23296   23297   23294   23293   23296   23298
   23294   23293   23296   23303   23295   23293   23296   23297
   23295   23293   23296   23298   23295   23293   23296   23303
   23297   23296   23303   23299   23298   23296   23303   23299
   23299   23302   23304   23305   23299   23302   23304   23306
   23299   23302   23304   23307   23300   23299   23303   23296
   23300   23299   23302   23304   23301   23299   23303   23296
   23301   23299   23302   23304   23302   23299   23303   23296
   23302   23304   23307   23308   23302   23304   23307   23315
   23302   23304   23307   23309   23303   23299   23302   23304
   23304   23307   23315   23316   23304   23307   23315   23317
   23304   23307   23315   23318   23304   23307   23309   23310
   23305   23304   23307   23308   23305   23304   23307   23315
   23305   23304   23307   23309   23306   23304   23307   23308
   23306   23304   23307   23315   23306   23304   23307   23309
   23307   23315   23318   23319   23307   23309   23310   23312
   23307   23309   23310   23311   23308   23307   23315   23316
   23308   23307   23315   23317   23308   23307   23315   23318
   23308   23307   23309   23310   23309   23310   23312   23313
   23309   23310   23312   23314   23309   23310   23312   23324
   23309   23307   23315   23316   23309   23307   23315   23317
   23309   23307   23315   23318   23310   23312   23324   23325
   23310   23312   23324   23326   23310   23312   23324   23327
   23311   23310   23312   23313   23311   23310   23312   23314
   23311   23310   23312   23324   23312   23324   23327   23328
   23312   23324   23327   23329   23312   23324   23327   23330
   23313   23312   23324   23325   23313   23312   23324   23326
   23313   23312   23324   23327   23314   23312   23324   23325
   23314   23312   23324   23326   23314   23312   23324   23327
   23315   23307   23309   23310   23315   23318   23319   23321
   23315   23318   23319   23320   23316   23315   23318   23319
   23317   23315   23318   23319   23318   23319   23321   23322
   23318   23319   23321   23323   23318   23319   23321   23361
   23319   23321   23361   23362   23319   23321   23361   23363
   23319   23321   23361   23364   23320   23319   23321   23322
   23320   23319   23321   23323   23320   23319   23321   23361
   23321   23361   23364   23365   23321   23361   23364   23366
   23321   23361   23364   23367   23322   23321   23361   23362
   23322   23321   23361   23363   23322   23321   23361   23364
   23323   23321   23361   23362   23323   23321   23361   23363
   23323   23321   23361   23364   23324   23327   23330   23331
   23324   23327   23330   23332   23324   23327   23330   23333
   23325   23324   23327   23328   23325   23324   23327   23329
   23325   23324   23327   23330   23326   23324   23327   23328
   23326   23324   23327   23329   23326   23324   23327   23330
   23327   23330   23333   23334   23327   23330   23333   23335
   23327   23330   23333   23336   23328   23327   23330   23331
   23328   23327   23330   23332   23328   23327   23330   23333
   23329   23327   23330   23331   23329   23327   23330   23332
   23329   23327   23330   23333   23330   23333   23336   23337
   23330   23333   23336   23338   23330   23333   23336   23339
   23331   23330   23333   23334   23331   23330   23333   23335
   23331   23330   23333   23336   23332   23330   23333   23334
   23332   23330   23333   23335   23332   23330   23333   23336
   23333   23336   23339   23340   23333   23336   23339   23341
   23333   23336   23339   23342   23334   23333   23336   23337
   23334   23333   23336   23338   23334   23333   23336   23339
   23335   23333   23336   23337   23335   23333   23336   23338
   23335   23333   23336   23339   23336   23339   23342   23343
   23336   23339   23342   23344   23336   23339   23342   23345
   23337   23336   23339   23340   23337   23336   23339   23341
   23337   23336   23339   23342   23338   23336   23339   23340
   23338   23336   23339   23341   23338   23336   23339   23342
   23339   23342   23345   23346   23339   23342   23345   23347
   23339   23342   23345   23348   23340   23339   23342   23343
   23340   23339   23342   23344   23340   23339   23342   23345
   23341   23339   23342   23343   23341   23339   23342   23344
   23341   23339   23342   23345   23342   23345   23348   23349
   23342   23345   23348   23350   23342   23345   23348   23351
   23343   23342   23345   23346   23343   23342   23345   23347
   23343   23342   23345   23348   23344   23342   23345   23346
   23344   23342   23345   23347   23344   23342   23345   23348
   23345   23348   23351   23352   23345   23348   23351   23353
   23345   23348   23351   23354   23346   23345   23348   23349
   23346   23345   23348   23350   23346   23345   23348   23351
   23347   23345   23348   23349   23347   23345   23348   23350
   23347   23345   23348   23351   23348   23351   23354   23355
   23348   23351   23354   23356   23348   23351   23354   23357
   23349   23348   23351   23352   23349   23348   23351   23353
   23349   23348   23351   23354   23350   23348   23351   23352
   23350   23348   23351   23353   23350   23348   23351   23354
   23351   23354   23357   23358   23351   23354   23357   23359
   23351   23354   23357   23360   23352   23351   23354   23355
   23352   23351   23354   23356   23352   23351   23354   23357
   23353   23351   23354   23355   23353   23351   23354   23356
   23353   23351   23354   23357   23355   23354   23357   23358
   23355   23354   23357   23359   23355   23354   23357   23360
   23356   23354   23357   23358   23356   23354   23357   23359
   23356   23354   23357   23360   23361   23364   23367   23368
   23361   23364   23367   23369   23361   23364   23367   23370
   23362   23361   23364   23365   23362   23361   23364   23366
   23362   23361   23364   23367   23363   23361   23364   23365
   23363   23361   23364   23366   23363   23361   23364   23367
   23364   23367   23370   23371   23364   23367   23370   23372
   23364   23367   23370   23373   23365   23364   23367   23368
   23365   23364   23367   23369   23365   23364   23367   23370
   23366   23364   23367   23368   23366   23364   23367   23369
   23366   23364   23367   23370   23367   23370   23373   23374
   23367   23370   23373   23375   23367   23370   23373   23376
   23368   23367   23370   23371   23368   23367   23370   23372
   23368   23367   23370   23373   23369   23367   23370   23371
   23369   23367   23370   23372   23369   23367   23370   23373
   23370   23373   23376   23377   23370   23373   23376   23378
   23370   23373   23376   23379   23371   23370   23373   23374
   23371   23370   23373   23375   23371   23370   23373   23376
   23372   23370   23373   23374   23372   23370   23373   23375
   23372   23370   23373   23376   23373   23376   23379   23380
   23373   23376   23379   23381   23373   23376   23379   23382
   23374   23373   23376   23377   23374   23373   23376   23378
   23374   23373   23376   23379   23375   23373   23376   23377
   23375   23373   23376   23378   23375   23373   23376   23379
   23376   23379   23382   23383   23376   23379   23382   23384
   23376   23379   23382   23385   23377   23376   23379   23380
   23377   23376   23379   23381   23377   23376   23379   23382
   23378   23376   23379   23380   23378   23376   23379   23381
   23378   23376   23379   23382   23379   23382   23385   23386
   23379   23382   23385   23387   23379   23382   23385   23388
   23380   23379   23382   23383   23380   23379   23382   23384
   23380   23379   23382   23385   23381   23379   23382   23383
   23381   23379   23382   23384   23381   23379   23382   23385
   23382   23385   23388   23389   23382   23385   23388   23390
   23382   23385   23388   23391   23383   23382   23385   23386
   23383   23382   23385   23387   23383   23382   23385   23388
   23384   23382   23385   23386   23384   23382   23385   23387
   23384   23382   23385   23388   23385   23388   23391   23392
   23385   23388   23391   23393   23385   23388   23391   23394
   23386   23385   23388   23389   23386   23385   23388   23390
   23386   23385   23388   23391   23387   23385   23388   23389
   23387   23385   23388   23390   23387   23385   23388   23391
   23388   23391   23394   23395   23388   23391   23394   23396
   23388   23391   23394   23397   23389   23388   23391   23392
   23389   23388   23391   23393   23389   23388   23391   23394
   23390   23388   23391   23392   23390   23388   23391   23393
   23390   23388   23391   23394   23392   23391   23394   23395
   23392   23391   23394   23396   23392   23391   23394   23397
   23393   23391   23394   23395   23393   23391   23394   23396
   23393   23391   23394   23397   23398   23411   23414   23415
   23398   23411   23414   23416   23398   23411   23414   23421
   23399   23398   23403   23404   23399   23398   23403   23405
   23399   23398   23403   23406   23399   23398   23407   23408
   23399   23398   23407   23409   23399   23398   23407   23410
   23399   23398   23411   23412   23399   23398   23411   23413
   23399   23398   23411   23414   23403   23398   23399   23400
   23403   23398   23399   23401   23403   23398   23399   23402
   23403   23398   23407   23408   23403   23398   23407   23409
   23403   23398   23407   23410   23403   23398   23411   23412
   23403   23398   23411   23413   23403   23398   23411   23414
   23407   23398   23399   23400   23407   23398   23399   23401
   23407   23398   23399   23402   23407   23398   23403   23404
   23407   23398   23403   23405   23407   23398   23403   23406
   23407   23398   23411   23412   23407   23398   23411   23413
   23407   23398   23411   23414   23411   23398   23399   23400
   23411   23398   23399   23401   23411   23398   23399   23402
   23411   23398   23403   23404   23411   23398   23403   23405
   23411   23398   23403   23406   23411   23398   23407   23408
   23411   23398   23407   23409   23411   23398   23407   23410
   23411   23414   23421   23417   23412   23411   23414   23415
   23412   23411   23414   23416   23412   23411   23414   23421
   23413   23411   23414   23415   23413   23411   23414   23416
   23413   23411   23414   23421   23415   23414   23421   23417
   23416   23414   23421   23417   23417   23420   23422   23423
   23417   23420   23422   23424   23417   23420   23422   23425
   23418   23417   23421   23414   23418   23417   23420   23422
   23419   23417   23421   23414   23419   23417   23420   23422
   23420   23417   23421   23414   23420   23422   23425   23426
   23420   23422   23425   23433   23420   23422   23425   23427
   23421   23417   23420   23422   23422   23425   23433   23434
   23422   23425   23433   23435   23422   23425   23433   23436
   23422   23425   23427   23428   23423   23422   23425   23426
   23423   23422   23425   23433   23423   23422   23425   23427
   23424   23422   23425   23426   23424   23422   23425   23433
   23424   23422   23425   23427   23425   23433   23436   23437
   23425   23427   23428   23430   23425   23427   23428   23429
   23426   23425   23433   23434   23426   23425   23433   23435
   23426   23425   23433   23436   23426   23425   23427   23428
   23427   23428   23430   23431   23427   23428   23430   23432
   23427   23428   23430   23442   23427   23425   23433   23434
   23427   23425   23433   23435   23427   23425   23433   23436
   23428   23430   23442   23443   23428   23430   23442   23444
   23428   23430   23442   23445   23429   23428   23430   23431
   23429   23428   23430   23432   23429   23428   23430   23442
   23430   23442   23445   23446   23430   23442   23445   23447
   23430   23442   23445   23448   23431   23430   23442   23443
   23431   23430   23442   23444   23431   23430   23442   23445
   23432   23430   23442   23443   23432   23430   23442   23444
   23432   23430   23442   23445   23433   23425   23427   23428
   23433   23436   23437   23439   23433   23436   23437   23438
   23434   23433   23436   23437   23435   23433   23436   23437
   23436   23437   23439   23440   23436   23437   23439   23441
   23436   23437   23439   23479   23437   23439   23479   23480
   23437   23439   23479   23481   23437   23439   23479   23482
   23438   23437   23439   23440   23438   23437   23439   23441
   23438   23437   23439   23479   23439   23479   23482   23483
   23439   23479   23482   23484   23439   23479   23482   23485
   23440   23439   23479   23480   23440   23439   23479   23481
   23440   23439   23479   23482   23441   23439   23479   23480
   23441   23439   23479   23481   23441   23439   23479   23482
   23442   23445   23448   23449   23442   23445   23448   23450
   23442   23445   23448   23451   23443   23442   23445   23446
   23443   23442   23445   23447   23443   23442   23445   23448
   23444   23442   23445   23446   23444   23442   23445   23447
   23444   23442   23445   23448   23445   23448   23451   23452
   23445   23448   23451   23453   23445   23448   23451   23454
   23446   23445   23448   23449   23446   23445   23448   23450
   23446   23445   23448   23451   23447   23445   23448   23449
   23447   23445   23448   23450   23447   23445   23448   23451
   23448   23451   23454   23455   23448   23451   23454   23456
   23448   23451   23454   23457   23449   23448   23451   23452
   23449   23448   23451   23453   23449   23448   23451   23454
   23450   23448   23451   23452   23450   23448   23451   23453
   23450   23448   23451   23454   23451   23454   23457   23458
   23451   23454   23457   23459   23451   23454   23457   23460
   23452   23451   23454   23455   23452   23451   23454   23456
   23452   23451   23454   23457   23453   23451   23454   23455
   23453   23451   23454   23456   23453   23451   23454   23457
   23454   23457   23460   23461   23454   23457   23460   23462
   23454   23457   23460   23463   23455   23454   23457   23458
   23455   23454   23457   23459   23455   23454   23457   23460
   23456   23454   23457   23458   23456   23454   23457   23459
   23456   23454   23457   23460   23457   23460   23463   23464
   23457   23460   23463   23465   23457   23460   23463   23466
   23458   23457   23460   23461   23458   23457   23460   23462
   23458   23457   23460   23463   23459   23457   23460   23461
   23459   23457   23460   23462   23459   23457   23460   23463
   23460   23463   23466   23467   23460   23463   23466   23468
   23460   23463   23466   23469   23461   23460   23463   23464
   23461   23460   23463   23465   23461   23460   23463   23466
   23462   23460   23463   23464   23462   23460   23463   23465
   23462   23460   23463   23466   23463   23466   23469   23470
   23463   23466   23469   23471   23463   23466   23469   23472
   23464   23463   23466   23467   23464   23463   23466   23468
   23464   23463   23466   23469   23465   23463   23466   23467
   23465   23463   23466   23468   23465   23463   23466   23469
   23466   23469   23472   23473   23466   23469   23472   23474
   23466   23469   23472   23475   23467   23466   23469   23470
   23467   23466   23469   23471   23467   23466   23469   23472
   23468   23466   23469   23470   23468   23466   23469   23471
   23468   23466   23469   23472   23469   23472   23475   23476
   23469   23472   23475   23477   23469   23472   23475   23478
   23470   23469   23472   23473   23470   23469   23472   23474
   23470   23469   23472   23475   23471   23469   23472   23473
   23471   23469   23472   23474   23471   23469   23472   23475
   23473   23472   23475   23476   23473   23472   23475   23477
   23473   23472   23475   23478   23474   23472   23475   23476
   23474   23472   23475   23477   23474   23472   23475   23478
   23479   23482   23485   23486   23479   23482   23485   23487
   23479   23482   23485   23488   23480   23479   23482   23483
   23480   23479   23482   23484   23480   23479   23482   23485
   23481   23479   23482   23483   23481   23479   23482   23484
   23481   23479   23482   23485   23482   23485   23488   23489
   23482   23485   23488   23490   23482   23485   23488   23491
   23483   23482   23485   23486   23483   23482   23485   23487
   23483   23482   23485   23488   23484   23482   23485   23486
   23484   23482   23485   23487   23484   23482   23485   23488
   23485   23488   23491   23492   23485   23488   23491   23493
   23485   23488   23491   23494   23486   23485   23488   23489
   23486   23485   23488   23490   23486   23485   23488   23491
   23487   23485   23488   23489   23487   23485   23488   23490
   23487   23485   23488   23491   23488   23491   23494   23495
   23488   23491   23494   23496   23488   23491   23494   23497
   23489   23488   23491   23492   23489   23488   23491   23493
   23489   23488   23491   23494   23490   23488   23491   23492
   23490   23488   23491   23493   23490   23488   23491   23494
   23491   23494   23497   23498   23491   23494   23497   23499
   23491   23494   23497   23500   23492   23491   23494   23495
   23492   23491   23494   23496   23492   23491   23494   23497
   23493   23491   23494   23495   23493   23491   23494   23496
   23493   23491   23494   23497   23494   23497   23500   23501
   23494   23497   23500   23502   23494   23497   23500   23503
   23495   23494   23497   23498   23495   23494   23497   23499
   23495   23494   23497   23500   23496   23494   23497   23498
   23496   23494   23497   23499   23496   23494   23497   23500
   23497   23500   23503   23504   23497   23500   23503   23505
   23497   23500   23503   23506   23498   23497   23500   23501
   23498   23497   23500   23502   23498   23497   23500   23503
   23499   23497   23500   23501   23499   23497   23500   23502
   23499   23497   23500   23503   23500   23503   23506   23507
   23500   23503   23506   23508   23500   23503   23506   23509
   23501   23500   23503   23504   23501   23500   23503   23505
   23501   23500   23503   23506   23502   23500   23503   23504
   23502   23500   23503   23505   23502   23500   23503   23506
   23503   23506   23509   23510   23503   23506   23509   23511
   23503   23506   23509   23512   23504   23503   23506   23507
   23504   23503   23506   23508   23504   23503   23506   23509
   23505   23503   23506   23507   23505   23503   23506   23508
   23505   23503   23506   23509   23506   23509   23512   23513
   23506   23509   23512   23514   23506   23509   23512   23515
   23507   23506   23509   23510   23507   23506   23509   23511
   23507   23506   23509   23512   23508   23506   23509   23510
   23508   23506   23509   23511   23508   23506   23509   23512
   23510   23509   23512   23513   23510   23509   23512   23514
   23510   23509   23512   23515   23511   23509   23512   23513
   23511   23509   23512   23514   23511   23509   23512   23515
   23516   23529   23532   23533   23516   23529   23532   23534
   23516   23529   23532   23539   23517   23516   23521   23522
   23517   23516   23521   23523   23517   23516   23521   23524
   23517   23516   23525   23526   23517   23516   23525   23527
   23517   23516   23525   23528   23517   23516   23529   23530
   23517   23516   23529   23531   23517   23516   23529   23532
   23521   23516   23517   23518   23521   23516   23517   23519
   23521   23516   23517   23520   23521   23516   23525   23526
   23521   23516   23525   23527   23521   23516   23525   23528
   23521   23516   23529   23530   23521   23516   23529   23531
   23521   23516   23529   23532   23525   23516   23517   23518
   23525   23516   23517   23519   23525   23516   23517   23520
   23525   23516   23521   23522   23525   23516   23521   23523
   23525   23516   23521   23524   23525   23516   23529   23530
   23525   23516   23529   23531   23525   23516   23529   23532
   23529   23516   23517   23518   23529   23516   23517   23519
   23529   23516   23517   23520   23529   23516   23521   23522
   23529   23516   23521   23523   23529   23516   23521   23524
   23529   23516   23525   23526   23529   23516   23525   23527
   23529   23516   23525   23528   23529   23532   23539   23535
   23530   23529   23532   23533   23530   23529   23532   23534
   23530   23529   23532   23539   23531   23529   23532   23533
   23531   23529   23532   23534   23531   23529   23532   23539
   23533   23532   23539   23535   23534   23532   23539   23535
   23535   23538   23540   23541   23535   23538   23540   23542
   23535   23538   23540   23543   23536   23535   23539   23532
   23536   23535   23538   23540   23537   23535   23539   23532
   23537   23535   23538   23540   23538   23535   23539   23532
   23538   23540   23543   23544   23538   23540   23543   23551
   23538   23540   23543   23545   23539   23535   23538   23540
   23540   23543   23551   23552   23540   23543   23551   23553
   23540   23543   23551   23554   23540   23543   23545   23546
   23541   23540   23543   23544   23541   23540   23543   23551
   23541   23540   23543   23545   23542   23540   23543   23544
   23542   23540   23543   23551   23542   23540   23543   23545
   23543   23551   23554   23555   23543   23545   23546   23548
   23543   23545   23546   23547   23544   23543   23551   23552
   23544   23543   23551   23553   23544   23543   23551   23554
   23544   23543   23545   23546   23545   23546   23548   23549
   23545   23546   23548   23550   23545   23546   23548   23560
   23545   23543   23551   23552   23545   23543   23551   23553
   23545   23543   23551   23554   23546   23548   23560   23561
   23546   23548   23560   23562   23546   23548   23560   23563
   23547   23546   23548   23549   23547   23546   23548   23550
   23547   23546   23548   23560   23548   23560   23563   23564
   23548   23560   23563   23565   23548   23560   23563   23566
   23549   23548   23560   23561   23549   23548   23560   23562
   23549   23548   23560   23563   23550   23548   23560   23561
   23550   23548   23560   23562   23550   23548   23560   23563
   23551   23543   23545   23546   23551   23554   23555   23557
   23551   23554   23555   23556   23552   23551   23554   23555
   23553   23551   23554   23555   23554   23555   23557   23558
   23554   23555   23557   23559   23554   23555   23557   23597
   23555   23557   23597   23598   23555   23557   23597   23599
   23555   23557   23597   23600   23556   23555   23557   23558
   23556   23555   23557   23559   23556   23555   23557   23597
   23557   23597   23600   23601   23557   23597   23600   23602
   23557   23597   23600   23603   23558   23557   23597   23598
   23558   23557   23597   23599   23558   23557   23597   23600
   23559   23557   23597   23598   23559   23557   23597   23599
   23559   23557   23597   23600   23560   23563   23566   23567
   23560   23563   23566   23568   23560   23563   23566   23569
   23561   23560   23563   23564   23561   23560   23563   23565
   23561   23560   23563   23566   23562   23560   23563   23564
   23562   23560   23563   23565   23562   23560   23563   23566
   23563   23566   23569   23570   23563   23566   23569   23571
   23563   23566   23569   23572   23564   23563   23566   23567
   23564   23563   23566   23568   23564   23563   23566   23569
   23565   23563   23566   23567   23565   23563   23566   23568
   23565   23563   23566   23569   23566   23569   23572   23573
   23566   23569   23572   23574   23566   23569   23572   23575
   23567   23566   23569   23570   23567   23566   23569   23571
   23567   23566   23569   23572   23568   23566   23569   23570
   23568   23566   23569   23571   23568   23566   23569   23572
   23569   23572   23575   23576   23569   23572   23575   23577
   23569   23572   23575   23578   23570   23569   23572   23573
   23570   23569   23572   23574   23570   23569   23572   23575
   23571   23569   23572   23573   23571   23569   23572   23574
   23571   23569   23572   23575   23572   23575   23578   23579
   23572   23575   23578   23580   23572   23575   23578   23581
   23573   23572   23575   23576   23573   23572   23575   23577
   23573   23572   23575   23578   23574   23572   23575   23576
   23574   23572   23575   23577   23574   23572   23575   23578
   23575   23578   23581   23582   23575   23578   23581   23583
   23575   23578   23581   23584   23576   23575   23578   23579
   23576   23575   23578   23580   23576   23575   23578   23581
   23577   23575   23578   23579   23577   23575   23578   23580
   23577   23575   23578   23581   23578   23581   23584   23585
   23578   23581   23584   23586   23578   23581   23584   23587
   23579   23578   23581   23582   23579   23578   23581   23583
   23579   23578   23581   23584   23580   23578   23581   23582
   23580   23578   23581   23583   23580   23578   23581   23584
   23581   23584   23587   23588   23581   23584   23587   23589
   23581   23584   23587   23590   23582   23581   23584   23585
   23582   23581   23584   23586   23582   23581   23584   23587
   23583   23581   23584   23585   23583   23581   23584   23586
   23583   23581   23584   23587   23584   23587   23590   23591
   23584   23587   23590   23592   23584   23587   23590   23593
   23585   23584   23587   23588   23585   23584   23587   23589
   23585   23584   23587   23590   23586   23584   23587   23588
   23586   23584   23587   23589   23586   23584   23587   23590
   23587   23590   23593   23594   23587   23590   23593   23595
   23587   23590   23593   23596   23588   23587   23590   23591
   23588   23587   23590   23592   23588   23587   23590   23593
   23589   23587   23590   23591   23589   23587   23590   23592
   23589   23587   23590   23593   23591   23590   23593   23594
   23591   23590   23593   23595   23591   23590   23593   23596
   23592   23590   23593   23594   23592   23590   23593   23595
   23592   23590   23593   23596   23597   23600   23603   23604
   23597   23600   23603   23605   23597   23600   23603   23606
   23598   23597   23600   23601   23598   23597   23600   23602
   23598   23597   23600   23603   23599   23597   23600   23601
   23599   23597   23600   23602   23599   23597   23600   23603
   23600   23603   23606   23607   23600   23603   23606   23608
   23600   23603   23606   23609   23601   23600   23603   23604
   23601   23600   23603   23605   23601   23600   23603   23606
   23602   23600   23603   23604   23602   23600   23603   23605
   23602   23600   23603   23606   23603   23606   23609   23610
   23603   23606   23609   23611   23603   23606   23609   23612
   23604   23603   23606   23607   23604   23603   23606   23608
   23604   23603   23606   23609   23605   23603   23606   23607
   23605   23603   23606   23608   23605   23603   23606   23609
   23606   23609   23612   23613   23606   23609   23612   23614
   23606   23609   23612   23615   23607   23606   23609   23610
   23607   23606   23609   23611   23607   23606   23609   23612
   23608   23606   23609   23610   23608   23606   23609   23611
   23608   23606   23609   23612   23609   23612   23615   23616
   23609   23612   23615   23617   23609   23612   23615   23618
   23610   23609   23612   23613   23610   23609   23612   23614
   23610   23609   23612   23615   23611   23609   23612   23613
   23611   23609   23612   23614   23611   23609   23612   23615
   23612   23615   23618   23619   23612   23615   23618   23620
   23612   23615   23618   23621   23613   23612   23615   23616
   23613   23612   23615   23617   23613   23612   23615   23618
   23614   23612   23615   23616   23614   23612   23615   23617
   23614   23612   23615   23618   23615   23618   23621   23622
   23615   23618   23621   23623   23615   23618   23621   23624
   23616   23615   23618   23619   23616   23615   23618   23620
   23616   23615   23618   23621   23617   23615   23618   23619
   23617   23615   23618   23620   23617   23615   23618   23621
   23618   23621   23624   23625   23618   23621   23624   23626
   23618   23621   23624   23627   23619   23618   23621   23622
   23619   23618   23621   23623   23619   23618   23621   23624
   23620   23618   23621   23622   23620   23618   23621   23623
   23620   23618   23621   23624   23621   23624   23627   23628
   23621   23624   23627   23629   23621   23624   23627   23630
   23622   23621   23624   23625   23622   23621   23624   23626
   23622   23621   23624   23627   23623   23621   23624   23625
   23623   23621   23624   23626   23623   23621   23624   23627
   23624   23627   23630   23631   23624   23627   23630   23632
   23624   23627   23630   23633   23625   23624   23627   23628
   23625   23624   23627   23629   23625   23624   23627   23630
   23626   23624   23627   23628   23626   23624   23627   23629
   23626   23624   23627   23630   23628   23627   23630   23631
   23628   23627   23630   23632   23628   23627   23630   23633
   23629   23627   23630   23631   23629   23627   23630   23632
   23629   23627   23630   23633   23634   23647   23650   23651
   23634   23647   23650   23652   23634   23647   23650   23657
   23635   23634   23639   23640   23635   23634   23639   23641
   23635   23634   23639   23642   23635   23634   23643   23644
   23635   23634   23643   23645   23635   23634   23643   23646
   23635   23634   23647   23648   23635   23634   23647   23649
   23635   23634   23647   23650   23639   23634   23635   23636
   23639   23634   23635   23637   23639   23634   23635   23638
   23639   23634   23643   23644   23639   23634   23643   23645
   23639   23634   23643   23646   23639   23634   23647   23648
   23639   23634   23647   23649   23639   23634   23647   23650
   23643   23634   23635   23636   23643   23634   23635   23637
   23643   23634   23635   23638   23643   23634   23639   23640
   23643   23634   23639   23641   23643   23634   23639   23642
   23643   23634   23647   23648   23643   23634   23647   23649
   23643   23634   23647   23650   23647   23634   23635   23636
   23647   23634   23635   23637   23647   23634   23635   23638
   23647   23634   23639   23640   23647   23634   23639   23641
   23647   23634   23639   23642   23647   23634   23643   23644
   23647   23634   23643   23645   23647   23634   23643   23646
   23647   23650   23657   23653   23648   23647   23650   23651
   23648   23647   23650   23652   23648   23647   23650   23657
   23649   23647   23650   23651   23649   23647   23650   23652
   23649   23647   23650   23657   23651   23650   23657   23653
   23652   23650   23657   23653   23653   23656   23658   23659
   23653   23656   23658   23660   23653   23656   23658   23661
   23654   23653   23657   23650   23654   23653   23656   23658
   23655   23653   23657   23650   23655   23653   23656   23658
   23656   23653   23657   23650   23656   23658   23661   23662
   23656   23658   23661   23669   23656   23658   23661   23663
   23657   23653   23656   23658   23658   23661   23669   23670
   23658   23661   23669   23671   23658   23661   23669   23672
   23658   23661   23663   23664   23659   23658   23661   23662
   23659   23658   23661   23669   23659   23658   23661   23663
   23660   23658   23661   23662   23660   23658   23661   23669
   23660   23658   23661   23663   23661   23669   23672   23673
   23661   23663   23664   23666   23661   23663   23664   23665
   23662   23661   23669   23670   23662   23661   23669   23671
   23662   23661   23669   23672   23662   23661   23663   23664
   23663   23664   23666   23667   23663   23664   23666   23668
   23663   23664   23666   23678   23663   23661   23669   23670
   23663   23661   23669   23671   23663   23661   23669   23672
   23664   23666   23678   23679   23664   23666   23678   23680
   23664   23666   23678   23681   23665   23664   23666   23667
   23665   23664   23666   23668   23665   23664   23666   23678
   23666   23678   23681   23682   23666   23678   23681   23683
   23666   23678   23681   23684   23667   23666   23678   23679
   23667   23666   23678   23680   23667   23666   23678   23681
   23668   23666   23678   23679   23668   23666   23678   23680
   23668   23666   23678   23681   23669   23661   23663   23664
   23669   23672   23673   23675   23669   23672   23673   23674
   23670   23669   23672   23673   23671   23669   23672   23673
   23672   23673   23675   23676   23672   23673   23675   23677
   23672   23673   23675   23715   23673   23675   23715   23716
   23673   23675   23715   23717   23673   23675   23715   23718
   23674   23673   23675   23676   23674   23673   23675   23677
   23674   23673   23675   23715   23675   23715   23718   23719
   23675   23715   23718   23720   23675   23715   23718   23721
   23676   23675   23715   23716   23676   23675   23715   23717
   23676   23675   23715   23718   23677   23675   23715   23716
   23677   23675   23715   23717   23677   23675   23715   23718
   23678   23681   23684   23685   23678   23681   23684   23686
   23678   23681   23684   23687   23679   23678   23681   23682
   23679   23678   23681   23683   23679   23678   23681   23684
   23680   23678   23681   23682   23680   23678   23681   23683
   23680   23678   23681   23684   23681   23684   23687   23688
   23681   23684   23687   23689   23681   23684   23687   23690
   23682   23681   23684   23685   23682   23681   23684   23686
   23682   23681   23684   23687   23683   23681   23684   23685
   23683   23681   23684   23686   23683   23681   23684   23687
   23684   23687   23690   23691   23684   23687   23690   23692
   23684   23687   23690   23693   23685   23684   23687   23688
   23685   23684   23687   23689   23685   23684   23687   23690
   23686   23684   23687   23688   23686   23684   23687   23689
   23686   23684   23687   23690   23687   23690   23693   23694
   23687   23690   23693   23695   23687   23690   23693   23696
   23688   23687   23690   23691   23688   23687   23690   23692
   23688   23687   23690   23693   23689   23687   23690   23691
   23689   23687   23690   23692   23689   23687   23690   23693
   23690   23693   23696   23697   23690   23693   23696   23698
   23690   23693   23696   23699   23691   23690   23693   23694
   23691   23690   23693   23695   23691   23690   23693   23696
   23692   23690   23693   23694   23692   23690   23693   23695
   23692   23690   23693   23696   23693   23696   23699   23700
   23693   23696   23699   23701   23693   23696   23699   23702
   23694   23693   23696   23697   23694   23693   23696   23698
   23694   23693   23696   23699   23695   23693   23696   23697
   23695   23693   23696   23698   23695   23693   23696   23699
   23696   23699   23702   23703   23696   23699   23702   23704
   23696   23699   23702   23705   23697   23696   23699   23700
   23697   23696   23699   23701   23697   23696   23699   23702
   23698   23696   23699   23700   23698   23696   23699   23701
   23698   23696   23699   23702   23699   23702   23705   23706
   23699   23702   23705   23707   23699   23702   23705   23708
   23700   23699   23702   23703   23700   23699   23702   23704
   23700   23699   23702   23705   23701   23699   23702   23703
   23701   23699   23702   23704   23701   23699   23702   23705
   23702   23705   23708   23709   23702   23705   23708   23710
   23702   23705   23708   23711   23703   23702   23705   23706
   23703   23702   23705   23707   23703   23702   23705   23708
   23704   23702   23705   23706   23704   23702   23705   23707
   23704   23702   23705   23708   23705   23708   23711   23712
   23705   23708   23711   23713   23705   23708   23711   23714
   23706   23705   23708   23709   23706   23705   23708   23710
   23706   23705   23708   23711   23707   23705   23708   23709
   23707   23705   23708   23710   23707   23705   23708   23711
   23709   23708   23711   23712   23709   23708   23711   23713
   23709   23708   23711   23714   23710   23708   23711   23712
   23710   23708   23711   23713   23710   23708   23711   23714
   23715   23718   23721   23722   23715   23718   23721   23723
   23715   23718   23721   23724   23716   23715   23718   23719
   23716   23715   23718   23720   23716   23715   23718   23721
   23717   23715   23718   23719   23717   23715   23718   23720
   23717   23715   23718   23721   23718   23721   23724   23725
   23718   23721   23724   23726   23718   23721   23724   23727
   23719   23718   23721   23722   23719   23718   23721   23723
   23719   23718   23721   23724   23720   23718   23721   23722
   23720   23718   23721   23723   23720   23718   23721   23724
   23721   23724   23727   23728   23721   23724   23727   23729
   23721   23724   23727   23730   23722   23721   23724   23725
   23722   23721   23724   23726   23722   23721   23724   23727
   23723   23721   23724   23725   23723   23721   23724   23726
   23723   23721   23724   23727   23724   23727   23730   23731
   23724   23727   23730   23732   23724   23727   23730   23733
   23725   23724   23727   23728   23725   23724   23727   23729
   23725   23724   23727   23730   23726   23724   23727   23728
   23726   23724   23727   23729   23726   23724   23727   23730
   23727   23730   23733   23734   23727   23730   23733   23735
   23727   23730   23733   23736   23728   23727   23730   23731
   23728   23727   23730   23732   23728   23727   23730   23733
   23729   23727   23730   23731   23729   23727   23730   23732
   23729   23727   23730   23733   23730   23733   23736   23737
   23730   23733   23736   23738   23730   23733   23736   23739
   23731   23730   23733   23734   23731   23730   23733   23735
   23731   23730   23733   23736   23732   23730   23733   23734
   23732   23730   23733   23735   23732   23730   23733   23736
   23733   23736   23739   23740   23733   23736   23739   23741
   23733   23736   23739   23742   23734   23733   23736   23737
   23734   23733   23736   23738   23734   23733   23736   23739
   23735   23733   23736   23737   23735   23733   23736   23738
   23735   23733   23736   23739   23736   23739   23742   23743
   23736   23739   23742   23744   23736   23739   23742   23745
   23737   23736   23739   23740   23737   23736   23739   23741
   23737   23736   23739   23742   23738   23736   23739   23740
   23738   23736   23739   23741   23738   23736   23739   23742
   23739   23742   23745   23746   23739   23742   23745   23747
   23739   23742   23745   23748   23740   23739   23742   23743
   23740   23739   23742   23744   23740   23739   23742   23745
   23741   23739   23742   23743   23741   23739   23742   23744
   23741   23739   23742   23745   23742   23745   23748   23749
   23742   23745   23748   23750   23742   23745   23748   23751
   23743   23742   23745   23746   23743   23742   23745   23747
   23743   23742   23745   23748   23744   23742   23745   23746
   23744   23742   23745   23747   23744   23742   23745   23748
   23746   23745   23748   23749   23746   23745   23748   23750
   23746   23745   23748   23751   23747   23745   23748   23749
   23747   23745   23748   23750   23747   23745   23748   23751
   23752   23765   23768   23769   23752   23765   23768   23770
   23752   23765   23768   23775   23753   23752   23757   23758
   23753   23752   23757   23759   23753   23752   23757   23760
   23753   23752   23761   23762   23753   23752   23761   23763
   23753   23752   23761   23764   23753   23752   23765   23766
   23753   23752   23765   23767   23753   23752   23765   23768
   23757   23752   23753   23754   23757   23752   23753   23755
   23757   23752   23753   23756   23757   23752   23761   23762
   23757   23752   23761   23763   23757   23752   23761   23764
   23757   23752   23765   23766   23757   23752   23765   23767
   23757   23752   23765   23768   23761   23752   23753   23754
   23761   23752   23753   23755   23761   23752   23753   23756
   23761   23752   23757   23758   23761   23752   23757   23759
   23761   23752   23757   23760   23761   23752   23765   23766
   23761   23752   23765   23767   23761   23752   23765   23768
   23765   23752   23753   23754   23765   23752   23753   23755
   23765   23752   23753   23756   23765   23752   23757   23758
   23765   23752   23757   23759   23765   23752   23757   23760
   23765   23752   23761   23762   23765   23752   23761   23763
   23765   23752   23761   23764   23765   23768   23775   23771
   23766   23765   23768   23769   23766   23765   23768   23770
   23766   23765   23768   23775   23767   23765   23768   23769
   23767   23765   23768   23770   23767   23765   23768   23775
   23769   23768   23775   23771   23770   23768   23775   23771
   23771   23774   23776   23777   23771   23774   23776   23778
   23771   23774   23776   23779   23772   23771   23775   23768
   23772   23771   23774   23776   23773   23771   23775   23768
   23773   23771   23774   23776   23774   23771   23775   23768
   23774   23776   23779   23780   23774   23776   23779   23787
   23774   23776   23779   23781   23775   23771   23774   23776
   23776   23779   23787   23788   23776   23779   23787   23789
   23776   23779   23787   23790   23776   23779   23781   23782
   23777   23776   23779   23780   23777   23776   23779   23787
   23777   23776   23779   23781   23778   23776   23779   23780
   23778   23776   23779   23787   23778   23776   23779   23781
   23779   23787   23790   23791   23779   23781   23782   23784
   23779   23781   23782   23783   23780   23779   23787   23788
   23780   23779   23787   23789   23780   23779   23787   23790
   23780   23779   23781   23782   23781   23782   23784   23785
   23781   23782   23784   23786   23781   23782   23784   23796
   23781   23779   23787   23788   23781   23779   23787   23789
   23781   23779   23787   23790   23782   23784   23796   23797
   23782   23784   23796   23798   23782   23784   23796   23799
   23783   23782   23784   23785   23783   23782   23784   23786
   23783   23782   23784   23796   23784   23796   23799   23800
   23784   23796   23799   23801   23784   23796   23799   23802
   23785   23784   23796   23797   23785   23784   23796   23798
   23785   23784   23796   23799   23786   23784   23796   23797
   23786   23784   23796   23798   23786   23784   23796   23799
   23787   23779   23781   23782   23787   23790   23791   23793
   23787   23790   23791   23792   23788   23787   23790   23791
   23789   23787   23790   23791   23790   23791   23793   23794
   23790   23791   23793   23795   23790   23791   23793   23833
   23791   23793   23833   23834   23791   23793   23833   23835
   23791   23793   23833   23836   23792   23791   23793   23794
   23792   23791   23793   23795   23792   23791   23793   23833
   23793   23833   23836   23837   23793   23833   23836   23838
   23793   23833   23836   23839   23794   23793   23833   23834
   23794   23793   23833   23835   23794   23793   23833   23836
   23795   23793   23833   23834   23795   23793   23833   23835
   23795   23793   23833   23836   23796   23799   23802   23803
   23796   23799   23802   23804   23796   23799   23802   23805
   23797   23796   23799   23800   23797   23796   23799   23801
   23797   23796   23799   23802   23798   23796   23799   23800
   23798   23796   23799   23801   23798   23796   23799   23802
   23799   23802   23805   23806   23799   23802   23805   23807
   23799   23802   23805   23808   23800   23799   23802   23803
   23800   23799   23802   23804   23800   23799   23802   23805
   23801   23799   23802   23803   23801   23799   23802   23804
   23801   23799   23802   23805   23802   23805   23808   23809
   23802   23805   23808   23810   23802   23805   23808   23811
   23803   23802   23805   23806   23803   23802   23805   23807
   23803   23802   23805   23808   23804   23802   23805   23806
   23804   23802   23805   23807   23804   23802   23805   23808
   23805   23808   23811   23812   23805   23808   23811   23813
   23805   23808   23811   23814   23806   23805   23808   23809
   23806   23805   23808   23810   23806   23805   23808   23811
   23807   23805   23808   23809   23807   23805   23808   23810
   23807   23805   23808   23811   23808   23811   23814   23815
   23808   23811   23814   23816   23808   23811   23814   23817
   23809   23808   23811   23812   23809   23808   23811   23813
   23809   23808   23811   23814   23810   23808   23811   23812
   23810   23808   23811   23813   23810   23808   23811   23814
   23811   23814   23817   23818   23811   23814   23817   23819
   23811   23814   23817   23820   23812   23811   23814   23815
   23812   23811   23814   23816   23812   23811   23814   23817
   23813   23811   23814   23815   23813   23811   23814   23816
   23813   23811   23814   23817   23814   23817   23820   23821
   23814   23817   23820   23822   23814   23817   23820   23823
   23815   23814   23817   23818   23815   23814   23817   23819
   23815   23814   23817   23820   23816   23814   23817   23818
   23816   23814   23817   23819   23816   23814   23817   23820
   23817   23820   23823   23824   23817   23820   23823   23825
   23817   23820   23823   23826   23818   23817   23820   23821
   23818   23817   23820   23822   23818   23817   23820   23823
   23819   23817   23820   23821   23819   23817   23820   23822
   23819   23817   23820   23823   23820   23823   23826   23827
   23820   23823   23826   23828   23820   23823   23826   23829
   23821   23820   23823   23824   23821   23820   23823   23825
   23821   23820   23823   23826   23822   23820   23823   23824
   23822   23820   23823   23825   23822   23820   23823   23826
   23823   23826   23829   23830   23823   23826   23829   23831
   23823   23826   23829   23832   23824   23823   23826   23827
   23824   23823   23826   23828   23824   23823   23826   23829
   23825   23823   23826   23827   23825   23823   23826   23828
   23825   23823   23826   23829   23827   23826   23829   23830
   23827   23826   23829   23831   23827   23826   23829   23832
   23828   23826   23829   23830   23828   23826   23829   23831
   23828   23826   23829   23832   23833   23836   23839   23840
   23833   23836   23839   23841   23833   23836   23839   23842
   23834   23833   23836   23837   23834   23833   23836   23838
   23834   23833   23836   23839   23835   23833   23836   23837
   23835   23833   23836   23838   23835   23833   23836   23839
   23836   23839   23842   23843   23836   23839   23842   23844
   23836   23839   23842   23845   23837   23836   23839   23840
   23837   23836   23839   23841   23837   23836   23839   23842
   23838   23836   23839   23840   23838   23836   23839   23841
   23838   23836   23839   23842   23839   23842   23845   23846
   23839   23842   23845   23847   23839   23842   23845   23848
   23840   23839   23842   23843   23840   23839   23842   23844
   23840   23839   23842   23845   23841   23839   23842   23843
   23841   23839   23842   23844   23841   23839   23842   23845
   23842   23845   23848   23849   23842   23845   23848   23850
   23842   23845   23848   23851   23843   23842   23845   23846
   23843   23842   23845   23847   23843   23842   23845   23848
   23844   23842   23845   23846   23844   23842   23845   23847
   23844   23842   23845   23848   23845   23848   23851   23852
   23845   23848   23851   23853   23845   23848   23851   23854
   23846   23845   23848   23849   23846   23845   23848   23850
   23846   23845   23848   23851   23847   23845   23848   23849
   23847   23845   23848   23850   23847   23845   23848   23851
   23848   23851   23854   23855   23848   23851   23854   23856
   23848   23851   23854   23857   23849   23848   23851   23852
   23849   23848   23851   23853   23849   23848   23851   23854
   23850   23848   23851   23852   23850   23848   23851   23853
   23850   23848   23851   23854   23851   23854   23857   23858
   23851   23854   23857   23859   23851   23854   23857   23860
   23852   23851   23854   23855   23852   23851   23854   23856
   23852   23851   23854   23857   23853   23851   23854   23855
   23853   23851   23854   23856   23853   23851   23854   23857
   23854   23857   23860   23861   23854   23857   23860   23862
   23854   23857   23860   23863   23855   23854   23857   23858
   23855   23854   23857   23859   23855   23854   23857   23860
   23856   23854   23857   23858   23856   23854   23857   23859
   23856   23854   23857   23860   23857   23860   23863   23864
   23857   23860   23863   23865   23857   23860   23863   23866
   23858   23857   23860   23861   23858   23857   23860   23862
   23858   23857   23860   23863   23859   23857   23860   23861
   23859   23857   23860   23862   23859   23857   23860   23863
   23860   23863   23866   23867   23860   23863   23866   23868
   23860   23863   23866   23869   23861   23860   23863   23864
   23861   23860   23863   23865   23861   23860   23863   23866
   23862   23860   23863   23864   23862   23860   23863   23865
   23862   23860   23863   23866   23864   23863   23866   23867
   23864   23863   23866   23868   23864   23863   23866   23869
   23865   23863   23866   23867   23865   23863   23866   23868
   23865   23863   23866   23869   23870   23883   23886   23887
   23870   23883   23886   23888   23870   23883   23886   23893
   23871   23870   23875   23876   23871   23870   23875   23877
   23871   23870   23875   23878   23871   23870   23879   23880
   23871   23870   23879   23881   23871   23870   23879   23882
   23871   23870   23883   23884   23871   23870   23883   23885
   23871   23870   23883   23886   23875   23870   23871   23872
   23875   23870   23871   23873   23875   23870   23871   23874
   23875   23870   23879   23880   23875   23870   23879   23881
   23875   23870   23879   23882   23875   23870   23883   23884
   23875   23870   23883   23885   23875   23870   23883   23886
   23879   23870   23871   23872   23879   23870   23871   23873
   23879   23870   23871   23874   23879   23870   23875   23876
   23879   23870   23875   23877   23879   23870   23875   23878
   23879   23870   23883   23884   23879   23870   23883   23885
   23879   23870   23883   23886   23883   23870   23871   23872
   23883   23870   23871   23873   23883   23870   23871   23874
   23883   23870   23875   23876   23883   23870   23875   23877
   23883   23870   23875   23878   23883   23870   23879   23880
   23883   23870   23879   23881   23883   23870   23879   23882
   23883   23886   23893   23889   23884   23883   23886   23887
   23884   23883   23886   23888   23884   23883   23886   23893
   23885   23883   23886   23887   23885   23883   23886   23888
   23885   23883   23886   23893   23887   23886   23893   23889
   23888   23886   23893   23889   23889   23892   23894   23895
   23889   23892   23894   23896   23889   23892   23894   23897
   23890   23889   23893   23886   23890   23889   23892   23894
   23891   23889   23893   23886   23891   23889   23892   23894
   23892   23889   23893   23886   23892   23894   23897   23898
   23892   23894   23897   23905   23892   23894   23897   23899
   23893   23889   23892   23894   23894   23897   23905   23906
   23894   23897   23905   23907   23894   23897   23905   23908
   23894   23897   23899   23900   23895   23894   23897   23898
   23895   23894   23897   23905   23895   23894   23897   23899
   23896   23894   23897   23898   23896   23894   23897   23905
   23896   23894   23897   23899   23897   23905   23908   23909
   23897   23899   23900   23902   23897   23899   23900   23901
   23898   23897   23905   23906   23898   23897   23905   23907
   23898   23897   23905   23908   23898   23897   23899   23900
   23899   23900   23902   23903   23899   23900   23902   23904
   23899   23900   23902   23914   23899   23897   23905   23906
   23899   23897   23905   23907   23899   23897   23905   23908
   23900   23902   23914   23915   23900   23902   23914   23916
   23900   23902   23914   23917   23901   23900   23902   23903
   23901   23900   23902   23904   23901   23900   23902   23914
   23902   23914   23917   23918   23902   23914   23917   23919
   23902   23914   23917   23920   23903   23902   23914   23915
   23903   23902   23914   23916   23903   23902   23914   23917
   23904   23902   23914   23915   23904   23902   23914   23916
   23904   23902   23914   23917   23905   23897   23899   23900
   23905   23908   23909   23911   23905   23908   23909   23910
   23906   23905   23908   23909   23907   23905   23908   23909
   23908   23909   23911   23912   23908   23909   23911   23913
   23908   23909   23911   23951   23909   23911   23951   23952
   23909   23911   23951   23953   23909   23911   23951   23954
   23910   23909   23911   23912   23910   23909   23911   23913
   23910   23909   23911   23951   23911   23951   23954   23955
   23911   23951   23954   23956   23911   23951   23954   23957
   23912   23911   23951   23952   23912   23911   23951   23953
   23912   23911   23951   23954   23913   23911   23951   23952
   23913   23911   23951   23953   23913   23911   23951   23954
   23914   23917   23920   23921   23914   23917   23920   23922
   23914   23917   23920   23923   23915   23914   23917   23918
   23915   23914   23917   23919   23915   23914   23917   23920
   23916   23914   23917   23918   23916   23914   23917   23919
   23916   23914   23917   23920   23917   23920   23923   23924
   23917   23920   23923   23925   23917   23920   23923   23926
   23918   23917   23920   23921   23918   23917   23920   23922
   23918   23917   23920   23923   23919   23917   23920   23921
   23919   23917   23920   23922   23919   23917   23920   23923
   23920   23923   23926   23927   23920   23923   23926   23928
   23920   23923   23926   23929   23921   23920   23923   23924
   23921   23920   23923   23925   23921   23920   23923   23926
   23922   23920   23923   23924   23922   23920   23923   23925
   23922   23920   23923   23926   23923   23926   23929   23930
   23923   23926   23929   23931   23923   23926   23929   23932
   23924   23923   23926   23927   23924   23923   23926   23928
   23924   23923   23926   23929   23925   23923   23926   23927
   23925   23923   23926   23928   23925   23923   23926   23929
   23926   23929   23932   23933   23926   23929   23932   23934
   23926   23929   23932   23935   23927   23926   23929   23930
   23927   23926   23929   23931   23927   23926   23929   23932
   23928   23926   23929   23930   23928   23926   23929   23931
   23928   23926   23929   23932   23929   23932   23935   23936
   23929   23932   23935   23937   23929   23932   23935   23938
   23930   23929   23932   23933   23930   23929   23932   23934
   23930   23929   23932   23935   23931   23929   23932   23933
   23931   23929   23932   23934   23931   23929   23932   23935
   23932   23935   23938   23939   23932   23935   23938   23940
   23932   23935   23938   23941   23933   23932   23935   23936
   23933   23932   23935   23937   23933   23932   23935   23938
   23934   23932   23935   23936   23934   23932   23935   23937
   23934   23932   23935   23938   23935   23938   23941   23942
   23935   23938   23941   23943   23935   23938   23941   23944
   23936   23935   23938   23939   23936   23935   23938   23940
   23936   23935   23938   23941   23937   23935   23938   23939
   23937   23935   23938   23940   23937   23935   23938   23941
   23938   23941   23944   23945   23938   23941   23944   23946
   23938   23941   23944   23947   23939   23938   23941   23942
   23939   23938   23941   23943   23939   23938   23941   23944
   23940   23938   23941   23942   23940   23938   23941   23943
   23940   23938   23941   23944   23941   23944   23947   23948
   23941   23944   23947   23949   23941   23944   23947   23950
   23942   23941   23944   23945   23942   23941   23944   23946
   23942   23941   23944   23947   23943   23941   23944   23945
   23943   23941   23944   23946   23943   23941   23944   23947
   23945   23944   23947   23948   23945   23944   23947   23949
   23945   23944   23947   23950   23946   23944   23947   23948
   23946   23944   23947   23949   23946   23944   23947   23950
   23951   23954   23957   23958   23951   23954   23957   23959
   23951   23954   23957   23960   23952   23951   23954   23955
   23952   23951   23954   23956   23952   23951   23954   23957
   23953   23951   23954   23955   23953   23951   23954   23956
   23953   23951   23954   23957   23954   23957   23960   23961
   23954   23957   23960   23962   23954   23957   23960   23963
   23955   23954   23957   23958   23955   23954   23957   23959
   23955   23954   23957   23960   23956   23954   23957   23958
   23956   23954   23957   23959   23956   23954   23957   23960
   23957   23960   23963   23964   23957   23960   23963   23965
   23957   23960   23963   23966   23958   23957   23960   23961
   23958   23957   23960   23962   23958   23957   23960   23963
   23959   23957   23960   23961   23959   23957   23960   23962
   23959   23957   23960   23963   23960   23963   23966   23967
   23960   23963   23966   23968   23960   23963   23966   23969
   23961   23960   23963   23964   23961   23960   23963   23965
   23961   23960   23963   23966   23962   23960   23963   23964
   23962   23960   23963   23965   23962   23960   23963   23966
   23963   23966   23969   23970   23963   23966   23969   23971
   23963   23966   23969   23972   23964   23963   23966   23967
   23964   23963   23966   23968   23964   23963   23966   23969
   23965   23963   23966   23967   23965   23963   23966   23968
   23965   23963   23966   23969   23966   23969   23972   23973
   23966   23969   23972   23974   23966   23969   23972   23975
   23967   23966   23969   23970   23967   23966   23969   23971
   23967   23966   23969   23972   23968   23966   23969   23970
   23968   23966   23969   23971   23968   23966   23969   23972
   23969   23972   23975   23976   23969   23972   23975   23977
   23969   23972   23975   23978   23970   23969   23972   23973
   23970   23969   23972   23974   23970   23969   23972   23975
   23971   23969   23972   23973   23971   23969   23972   23974
   23971   23969   23972   23975   23972   23975   23978   23979
   23972   23975   23978   23980   23972   23975   23978   23981
   23973   23972   23975   23976   23973   23972   23975   23977
   23973   23972   23975   23978   23974   23972   23975   23976
   23974   23972   23975   23977   23974   23972   23975   23978
   23975   23978   23981   23982   23975   23978   23981   23983
   23975   23978   23981   23984   23976   23975   23978   23979
   23976   23975   23978   23980   23976   23975   23978   23981
   23977   23975   23978   23979   23977   23975   23978   23980
   23977   23975   23978   23981   23978   23981   23984   23985
   23978   23981   23984   23986   23978   23981   23984   23987
   23979   23978   23981   23982   23979   23978   23981   23983
   23979   23978   23981   23984   23980   23978   23981   23982
   23980   23978   23981   23983   23980   23978   23981   23984
   23982   23981   23984   23985   23982   23981   23984   23986
   23982   23981   23984   23987   23983   23981   23984   23985
   23983   23981   23984   23986   23983   23981   23984   23987
   23988   24001   24004   24005   23988   24001   24004   24006
   23988   24001   24004   24011   23989   23988   23993   23994
   23989   23988   23993   23995   23989   23988   23993   23996
   23989   23988   23997   23998   23989   23988   23997   23999
   23989   23988   23997   24000   23989   23988   24001   24002
   23989   23988   24001   24003   23989   23988   24001   24004
   23993   23988   23989   23990   23993   23988   23989   23991
   23993   23988   23989   23992   23993   23988   23997   23998
   23993   23988   23997   23999   23993   23988   23997   24000
   23993   23988   24001   24002   23993   23988   24001   24003
   23993   23988   24001   24004   23997   23988   23989   23990
   23997   23988   23989   23991   23997   23988   23989   23992
   23997   23988   23993   23994   23997   23988   23993   23995
   23997   23988   23993   23996   23997   23988   24001   24002
   23997   23988   24001   24003   23997   23988   24001   24004
   24001   23988   23989   23990   24001   23988   23989   23991
   24001   23988   23989   23992   24001   23988   23993   23994
   24001   23988   23993   23995   24001   23988   23993   23996
   24001   23988   23997   23998   24001   23988   23997   23999
   24001   23988   23997   24000   24001   24004   24011   24007
   24002   24001   24004   24005   24002   24001   24004   24006
   24002   24001   24004   24011   24003   24001   24004   24005
   24003   24001   24004   24006   24003   24001   24004   24011
   24005   24004   24011   24007   24006   24004   24011   24007
   24007   24010   24012   24013   24007   24010   24012   24014
   24007   24010   24012   24015   24008   24007   24011   24004
   24008   24007   24010   24012   24009   24007   24011   24004
   24009   24007   24010   24012   24010   24007   24011   24004
   24010   24012   24015   24016   24010   24012   24015   24023
   24010   24012   24015   24017   24011   24007   24010   24012
   24012   24015   24023   24024   24012   24015   24023   24025
   24012   24015   24023   24026   24012   24015   24017   24018
   24013   24012   24015   24016   24013   24012   24015   24023
   24013   24012   24015   24017   24014   24012   24015   24016
   24014   24012   24015   24023   24014   24012   24015   24017
   24015   24023   24026   24027   24015   24017   24018   24020
   24015   24017   24018   24019   24016   24015   24023   24024
   24016   24015   24023   24025   24016   24015   24023   24026
   24016   24015   24017   24018   24017   24018   24020   24021
   24017   24018   24020   24022   24017   24018   24020   24032
   24017   24015   24023   24024   24017   24015   24023   24025
   24017   24015   24023   24026   24018   24020   24032   24033
   24018   24020   24032   24034   24018   24020   24032   24035
   24019   24018   24020   24021   24019   24018   24020   24022
   24019   24018   24020   24032   24020   24032   24035   24036
   24020   24032   24035   24037   24020   24032   24035   24038
   24021   24020   24032   24033   24021   24020   24032   24034
   24021   24020   24032   24035   24022   24020   24032   24033
   24022   24020   24032   24034   24022   24020   24032   24035
   24023   24015   24017   24018   24023   24026   24027   24029
   24023   24026   24027   24028   24024   24023   24026   24027
   24025   24023   24026   24027   24026   24027   24029   24030
   24026   24027   24029   24031   24026   24027   24029   24069
   24027   24029   24069   24070   24027   24029   24069   24071
   24027   24029   24069   24072   24028   24027   24029   24030
   24028   24027   24029   24031   24028   24027   24029   24069
   24029   24069   24072   24073   24029   24069   24072   24074
   24029   24069   24072   24075   24030   24029   24069   24070
   24030   24029   24069   24071   24030   24029   24069   24072
   24031   24029   24069   24070   24031   24029   24069   24071
   24031   24029   24069   24072   24032   24035   24038   24039
   24032   24035   24038   24040   24032   24035   24038   24041
   24033   24032   24035   24036   24033   24032   24035   24037
   24033   24032   24035   24038   24034   24032   24035   24036
   24034   24032   24035   24037   24034   24032   24035   24038
   24035   24038   24041   24042   24035   24038   24041   24043
   24035   24038   24041   24044   24036   24035   24038   24039
   24036   24035   24038   24040   24036   24035   24038   24041
   24037   24035   24038   24039   24037   24035   24038   24040
   24037   24035   24038   24041   24038   24041   24044   24045
   24038   24041   24044   24046   24038   24041   24044   24047
   24039   24038   24041   24042   24039   24038   24041   24043
   24039   24038   24041   24044   24040   24038   24041   24042
   24040   24038   24041   24043   24040   24038   24041   24044
   24041   24044   24047   24048   24041   24044   24047   24049
   24041   24044   24047   24050   24042   24041   24044   24045
   24042   24041   24044   24046   24042   24041   24044   24047
   24043   24041   24044   24045   24043   24041   24044   24046
   24043   24041   24044   24047   24044   24047   24050   24051
   24044   24047   24050   24052   24044   24047   24050   24053
   24045   24044   24047   24048   24045   24044   24047   24049
   24045   24044   24047   24050   24046   24044   24047   24048
   24046   24044   24047   24049   24046   24044   24047   24050
   24047   24050   24053   24054   24047   24050   24053   24055
   24047   24050   24053   24056   24048   24047   24050   24051
   24048   24047   24050   24052   24048   24047   24050   24053
   24049   24047   24050   24051   24049   24047   24050   24052
   24049   24047   24050   24053   24050   24053   24056   24057
   24050   24053   24056   24058   24050   24053   24056   24059
   24051   24050   24053   24054   24051   24050   24053   24055
   24051   24050   24053   24056   24052   24050   24053   24054
   24052   24050   24053   24055   24052   24050   24053   24056
   24053   24056   24059   24060   24053   24056   24059   24061
   24053   24056   24059   24062   24054   24053   24056   24057
   24054   24053   24056   24058   24054   24053   24056   24059
   24055   24053   24056   24057   24055   24053   24056   24058
   24055   24053   24056   24059   24056   24059   24062   24063
   24056   24059   24062   24064   24056   24059   24062   24065
   24057   24056   24059   24060   24057   24056   24059   24061
   24057   24056   24059   24062   24058   24056   24059   24060
   24058   24056   24059   24061   24058   24056   24059   24062
   24059   24062   24065   24066   24059   24062   24065   24067
   24059   24062   24065   24068   24060   24059   24062   24063
   24060   24059   24062   24064   24060   24059   24062   24065
   24061   24059   24062   24063   24061   24059   24062   24064
   24061   24059   24062   24065   24063   24062   24065   24066
   24063   24062   24065   24067   24063   24062   24065   24068
   24064   24062   24065   24066   24064   24062   24065   24067
   24064   24062   24065   24068   24069   24072   24075   24076
   24069   24072   24075   24077   24069   24072   24075   24078
   24070   24069   24072   24073   24070   24069   24072   24074
   24070   24069   24072   24075   24071   24069   24072   24073
   24071   24069   24072   24074   24071   24069   24072   24075
   24072   24075   24078   24079   24072   24075   24078   24080
   24072   24075   24078   24081   24073   24072   24075   24076
   24073   24072   24075   24077   24073   24072   24075   24078
   24074   24072   24075   24076   24074   24072   24075   24077
   24074   24072   24075   24078   24075   24078   24081   24082
   24075   24078   24081   24083   24075   24078   24081   24084
   24076   24075   24078   24079   24076   24075   24078   24080
   24076   24075   24078   24081   24077   24075   24078   24079
   24077   24075   24078   24080   24077   24075   24078   24081
   24078   24081   24084   24085   24078   24081   24084   24086
   24078   24081   24084   24087   24079   24078   24081   24082
   24079   24078   24081   24083   24079   24078   24081   24084
   24080   24078   24081   24082   24080   24078   24081   24083
   24080   24078   24081   24084   24081   24084   24087   24088
   24081   24084   24087   24089   24081   24084   24087   24090
   24082   24081   24084   24085   24082   24081   24084   24086
   24082   24081   24084   24087   24083   24081   24084   24085
   24083   24081   24084   24086   24083   24081   24084   24087
   24084   24087   24090   24091   24084   24087   24090   24092
   24084   24087   24090   24093   24085   24084   24087   24088
   24085   24084   24087   24089   24085   24084   24087   24090
   24086   24084   24087   24088   24086   24084   24087   24089
   24086   24084   24087   24090   24087   24090   24093   24094
   24087   24090   24093   24095   24087   24090   24093   24096
   24088   24087   24090   24091   24088   24087   24090   24092
   24088   24087   24090   24093   24089   24087   24090   24091
   24089   24087   24090   24092   24089   24087   24090   24093
   24090   24093   24096   24097   24090   24093   24096   24098
   24090   24093   24096   24099   24091   24090   24093   24094
   24091   24090   24093   24095   24091   24090   24093   24096
   24092   24090   24093   24094   24092   24090   24093   24095
   24092   24090   24093   24096   24093   24096   24099   24100
   24093   24096   24099   24101   24093   24096   24099   24102
   24094   24093   24096   24097   24094   24093   24096   24098
   24094   24093   24096   24099   24095   24093   24096   24097
   24095   24093   24096   24098   24095   24093   24096   24099
   24096   24099   24102   24103   24096   24099   24102   24104
   24096   24099   24102   24105   24097   24096   24099   24100
   24097   24096   24099   24101   24097   24096   24099   24102
   24098   24096   24099   24100   24098   24096   24099   24101
   24098   24096   24099   24102   24100   24099   24102   24103
   24100   24099   24102   24104   24100   24099   24102   24105
   24101   24099   24102   24103   24101   24099   24102   24104
   24101   24099   24102   24105   24106   24119   24122   24123
   24106   24119   24122   24124   24106   24119   24122   24129
   24107   24106   24111   24112   24107   24106   24111   24113
   24107   24106   24111   24114   24107   24106   24115   24116
   24107   24106   24115   24117   24107   24106   24115   24118
   24107   24106   24119   24120   24107   24106   24119   24121
   24107   24106   24119   24122   24111   24106   24107   24108
   24111   24106   24107   24109   24111   24106   24107   24110
   24111   24106   24115   24116   24111   24106   24115   24117
   24111   24106   24115   24118   24111   24106   24119   24120
   24111   24106   24119   24121   24111   24106   24119   24122
   24115   24106   24107   24108   24115   24106   24107   24109
   24115   24106   24107   24110   24115   24106   24111   24112
   24115   24106   24111   24113   24115   24106   24111   24114
   24115   24106   24119   24120   24115   24106   24119   24121
   24115   24106   24119   24122   24119   24106   24107   24108
   24119   24106   24107   24109   24119   24106   24107   24110
   24119   24106   24111   24112   24119   24106   24111   24113
   24119   24106   24111   24114   24119   24106   24115   24116
   24119   24106   24115   24117   24119   24106   24115   24118
   24119   24122   24129   24125   24120   24119   24122   24123
   24120   24119   24122   24124   24120   24119   24122   24129
   24121   24119   24122   24123   24121   24119   24122   24124
   24121   24119   24122   24129   24123   24122   24129   24125
   24124   24122   24129   24125   24125   24128   24130   24131
   24125   24128   24130   24132   24125   24128   24130   24133
   24126   24125   24129   24122   24126   24125   24128   24130
   24127   24125   24129   24122   24127   24125   24128   24130
   24128   24125   24129   24122   24128   24130   24133   24134
   24128   24130   24133   24141   24128   24130   24133   24135
   24129   24125   24128   24130   24130   24133   24141   24142
   24130   24133   24141   24143   24130   24133   24141   24144
   24130   24133   24135   24136   24131   24130   24133   24134
   24131   24130   24133   24141   24131   24130   24133   24135
   24132   24130   24133   24134   24132   24130   24133   24141
   24132   24130   24133   24135   24133   24141   24144   24145
   24133   24135   24136   24138   24133   24135   24136   24137
   24134   24133   24141   24142   24134   24133   24141   24143
   24134   24133   24141   24144   24134   24133   24135   24136
   24135   24136   24138   24139   24135   24136   24138   24140
   24135   24136   24138   24150   24135   24133   24141   24142
   24135   24133   24141   24143   24135   24133   24141   24144
   24136   24138   24150   24151   24136   24138   24150   24152
   24136   24138   24150   24153   24137   24136   24138   24139
   24137   24136   24138   24140   24137   24136   24138   24150
   24138   24150   24153   24154   24138   24150   24153   24155
   24138   24150   24153   24156   24139   24138   24150   24151
   24139   24138   24150   24152   24139   24138   24150   24153
   24140   24138   24150   24151   24140   24138   24150   24152
   24140   24138   24150   24153   24141   24133   24135   24136
   24141   24144   24145   24147   24141   24144   24145   24146
   24142   24141   24144   24145   24143   24141   24144   24145
   24144   24145   24147   24148   24144   24145   24147   24149
   24144   24145   24147   24187   24145   24147   24187   24188
   24145   24147   24187   24189   24145   24147   24187   24190
   24146   24145   24147   24148   24146   24145   24147   24149
   24146   24145   24147   24187   24147   24187   24190   24191
   24147   24187   24190   24192   24147   24187   24190   24193
   24148   24147   24187   24188   24148   24147   24187   24189
   24148   24147   24187   24190   24149   24147   24187   24188
   24149   24147   24187   24189   24149   24147   24187   24190
   24150   24153   24156   24157   24150   24153   24156   24158
   24150   24153   24156   24159   24151   24150   24153   24154
   24151   24150   24153   24155   24151   24150   24153   24156
   24152   24150   24153   24154   24152   24150   24153   24155
   24152   24150   24153   24156   24153   24156   24159   24160
   24153   24156   24159   24161   24153   24156   24159   24162
   24154   24153   24156   24157   24154   24153   24156   24158
   24154   24153   24156   24159   24155   24153   24156   24157
   24155   24153   24156   24158   24155   24153   24156   24159
   24156   24159   24162   24163   24156   24159   24162   24164
   24156   24159   24162   24165   24157   24156   24159   24160
   24157   24156   24159   24161   24157   24156   24159   24162
   24158   24156   24159   24160   24158   24156   24159   24161
   24158   24156   24159   24162   24159   24162   24165   24166
   24159   24162   24165   24167   24159   24162   24165   24168
   24160   24159   24162   24163   24160   24159   24162   24164
   24160   24159   24162   24165   24161   24159   24162   24163
   24161   24159   24162   24164   24161   24159   24162   24165
   24162   24165   24168   24169   24162   24165   24168   24170
   24162   24165   24168   24171   24163   24162   24165   24166
   24163   24162   24165   24167   24163   24162   24165   24168
   24164   24162   24165   24166   24164   24162   24165   24167
   24164   24162   24165   24168   24165   24168   24171   24172
   24165   24168   24171   24173   24165   24168   24171   24174
   24166   24165   24168   24169   24166   24165   24168   24170
   24166   24165   24168   24171   24167   24165   24168   24169
   24167   24165   24168   24170   24167   24165   24168   24171
   24168   24171   24174   24175   24168   24171   24174   24176
   24168   24171   24174   24177   24169   24168   24171   24172
   24169   24168   24171   24173   24169   24168   24171   24174
   24170   24168   24171   24172   24170   24168   24171   24173
   24170   24168   24171   24174   24171   24174   24177   24178
   24171   24174   24177   24179   24171   24174   24177   24180
   24172   24171   24174   24175   24172   24171   24174   24176
   24172   24171   24174   24177   24173   24171   24174   24175
   24173   24171   24174   24176   24173   24171   24174   24177
   24174   24177   24180   24181   24174   24177   24180   24182
   24174   24177   24180   24183   24175   24174   24177   24178
   24175   24174   24177   24179   24175   24174   24177   24180
   24176   24174   24177   24178   24176   24174   24177   24179
   24176   24174   24177   24180   24177   24180   24183   24184
   24177   24180   24183   24185   24177   24180   24183   24186
   24178   24177   24180   24181   24178   24177   24180   24182
   24178   24177   24180   24183   24179   24177   24180   24181
   24179   24177   24180   24182   24179   24177   24180   24183
   24181   24180   24183   24184   24181   24180   24183   24185
   24181   24180   24183   24186   24182   24180   24183   24184
   24182   24180   24183   24185   24182   24180   24183   24186
   24187   24190   24193   24194   24187   24190   24193   24195
   24187   24190   24193   24196   24188   24187   24190   24191
   24188   24187   24190   24192   24188   24187   24190   24193
   24189   24187   24190   24191   24189   24187   24190   24192
   24189   24187   24190   24193   24190   24193   24196   24197
   24190   24193   24196   24198   24190   24193   24196   24199
   24191   24190   24193   24194   24191   24190   24193   24195
   24191   24190   24193   24196   24192   24190   24193   24194
   24192   24190   24193   24195   24192   24190   24193   24196
   24193   24196   24199   24200   24193   24196   24199   24201
   24193   24196   24199   24202   24194   24193   24196   24197
   24194   24193   24196   24198   24194   24193   24196   24199
   24195   24193   24196   24197   24195   24193   24196   24198
   24195   24193   24196   24199   24196   24199   24202   24203
   24196   24199   24202   24204   24196   24199   24202   24205
   24197   24196   24199   24200   24197   24196   24199   24201
   24197   24196   24199   24202   24198   24196   24199   24200
   24198   24196   24199   24201   24198   24196   24199   24202
   24199   24202   24205   24206   24199   24202   24205   24207
   24199   24202   24205   24208   24200   24199   24202   24203
   24200   24199   24202   24204   24200   24199   24202   24205
   24201   24199   24202   24203   24201   24199   24202   24204
   24201   24199   24202   24205   24202   24205   24208   24209
   24202   24205   24208   24210   24202   24205   24208   24211
   24203   24202   24205   24206   24203   24202   24205   24207
   24203   24202   24205   24208   24204   24202   24205   24206
   24204   24202   24205   24207   24204   24202   24205   24208
   24205   24208   24211   24212   24205   24208   24211   24213
   24205   24208   24211   24214   24206   24205   24208   24209
   24206   24205   24208   24210   24206   24205   24208   24211
   24207   24205   24208   24209   24207   24205   24208   24210
   24207   24205   24208   24211   24208   24211   24214   24215
   24208   24211   24214   24216   24208   24211   24214   24217
   24209   24208   24211   24212   24209   24208   24211   24213
   24209   24208   24211   24214   24210   24208   24211   24212
   24210   24208   24211   24213   24210   24208   24211   24214
   24211   24214   24217   24218   24211   24214   24217   24219
   24211   24214   24217   24220   24212   24211   24214   24215
   24212   24211   24214   24216   24212   24211   24214   24217
   24213   24211   24214   24215   24213   24211   24214   24216
   24213   24211   24214   24217   24214   24217   24220   24221
   24214   24217   24220   24222   24214   24217   24220   24223
   24215   24214   24217   24218   24215   24214   24217   24219
   24215   24214   24217   24220   24216   24214   24217   24218
   24216   24214   24217   24219   24216   24214   24217   24220
   24218   24217   24220   24221   24218   24217   24220   24222
   24218   24217   24220   24223   24219   24217   24220   24221
   24219   24217   24220   24222   24219   24217   24220   24223
   24224   24237   24240   24241   24224   24237   24240   24242
   24224   24237   24240   24247   24225   24224   24229   24230
   24225   24224   24229   24231   24225   24224   24229   24232
   24225   24224   24233   24234   24225   24224   24233   24235
   24225   24224   24233   24236   24225   24224   24237   24238
   24225   24224   24237   24239   24225   24224   24237   24240
   24229   24224   24225   24226   24229   24224   24225   24227
   24229   24224   24225   24228   24229   24224   24233   24234
   24229   24224   24233   24235   24229   24224   24233   24236
   24229   24224   24237   24238   24229   24224   24237   24239
   24229   24224   24237   24240   24233   24224   24225   24226
   24233   24224   24225   24227   24233   24224   24225   24228
   24233   24224   24229   24230   24233   24224   24229   24231
   24233   24224   24229   24232   24233   24224   24237   24238
   24233   24224   24237   24239   24233   24224   24237   24240
   24237   24224   24225   24226   24237   24224   24225   24227
   24237   24224   24225   24228   24237   24224   24229   24230
   24237   24224   24229   24231   24237   24224   24229   24232
   24237   24224   24233   24234   24237   24224   24233   24235
   24237   24224   24233   24236   24237   24240   24247   24243
   24238   24237   24240   24241   24238   24237   24240   24242
   24238   24237   24240   24247   24239   24237   24240   24241
   24239   24237   24240   24242   24239   24237   24240   24247
   24241   24240   24247   24243   24242   24240   24247   24243
   24243   24246   24248   24249   24243   24246   24248   24250
   24243   24246   24248   24251   24244   24243   24247   24240
   24244   24243   24246   24248   24245   24243   24247   24240
   24245   24243   24246   24248   24246   24243   24247   24240
   24246   24248   24251   24252   24246   24248   24251   24259
   24246   24248   24251   24253   24247   24243   24246   24248
   24248   24251   24259   24260   24248   24251   24259   24261
   24248   24251   24259   24262   24248   24251   24253   24254
   24249   24248   24251   24252   24249   24248   24251   24259
   24249   24248   24251   24253   24250   24248   24251   24252
   24250   24248   24251   24259   24250   24248   24251   24253
   24251   24259   24262   24263   24251   24253   24254   24256
   24251   24253   24254   24255   24252   24251   24259   24260
   24252   24251   24259   24261   24252   24251   24259   24262
   24252   24251   24253   24254   24253   24254   24256   24257
   24253   24254   24256   24258   24253   24254   24256   24268
   24253   24251   24259   24260   24253   24251   24259   24261
   24253   24251   24259   24262   24254   24256   24268   24269
   24254   24256   24268   24270   24254   24256   24268   24271
   24255   24254   24256   24257   24255   24254   24256   24258
   24255   24254   24256   24268   24256   24268   24271   24272
   24256   24268   24271   24273   24256   24268   24271   24274
   24257   24256   24268   24269   24257   24256   24268   24270
   24257   24256   24268   24271   24258   24256   24268   24269
   24258   24256   24268   24270   24258   24256   24268   24271
   24259   24251   24253   24254   24259   24262   24263   24265
   24259   24262   24263   24264   24260   24259   24262   24263
   24261   24259   24262   24263   24262   24263   24265   24266
   24262   24263   24265   24267   24262   24263   24265   24305
   24263   24265   24305   24306   24263   24265   24305   24307
   24263   24265   24305   24308   24264   24263   24265   24266
   24264   24263   24265   24267   24264   24263   24265   24305
   24265   24305   24308   24309   24265   24305   24308   24310
   24265   24305   24308   24311   24266   24265   24305   24306
   24266   24265   24305   24307   24266   24265   24305   24308
   24267   24265   24305   24306   24267   24265   24305   24307
   24267   24265   24305   24308   24268   24271   24274   24275
   24268   24271   24274   24276   24268   24271   24274   24277
   24269   24268   24271   24272   24269   24268   24271   24273
   24269   24268   24271   24274   24270   24268   24271   24272
   24270   24268   24271   24273   24270   24268   24271   24274
   24271   24274   24277   24278   24271   24274   24277   24279
   24271   24274   24277   24280   24272   24271   24274   24275
   24272   24271   24274   24276   24272   24271   24274   24277
   24273   24271   24274   24275   24273   24271   24274   24276
   24273   24271   24274   24277   24274   24277   24280   24281
   24274   24277   24280   24282   24274   24277   24280   24283
   24275   24274   24277   24278   24275   24274   24277   24279
   24275   24274   24277   24280   24276   24274   24277   24278
   24276   24274   24277   24279   24276   24274   24277   24280
   24277   24280   24283   24284   24277   24280   24283   24285
   24277   24280   24283   24286   24278   24277   24280   24281
   24278   24277   24280   24282   24278   24277   24280   24283
   24279   24277   24280   24281   24279   24277   24280   24282
   24279   24277   24280   24283   24280   24283   24286   24287
   24280   24283   24286   24288   24280   24283   24286   24289
   24281   24280   24283   24284   24281   24280   24283   24285
   24281   24280   24283   24286   24282   24280   24283   24284
   24282   24280   24283   24285   24282   24280   24283   24286
   24283   24286   24289   24290   24283   24286   24289   24291
   24283   24286   24289   24292   24284   24283   24286   24287
   24284   24283   24286   24288   24284   24283   24286   24289
   24285   24283   24286   24287   24285   24283   24286   24288
   24285   24283   24286   24289   24286   24289   24292   24293
   24286   24289   24292   24294   24286   24289   24292   24295
   24287   24286   24289   24290   24287   24286   24289   24291
   24287   24286   24289   24292   24288   24286   24289   24290
   24288   24286   24289   24291   24288   24286   24289   24292
   24289   24292   24295   24296   24289   24292   24295   24297
   24289   24292   24295   24298   24290   24289   24292   24293
   24290   24289   24292   24294   24290   24289   24292   24295
   24291   24289   24292   24293   24291   24289   24292   24294
   24291   24289   24292   24295   24292   24295   24298   24299
   24292   24295   24298   24300   24292   24295   24298   24301
   24293   24292   24295   24296   24293   24292   24295   24297
   24293   24292   24295   24298   24294   24292   24295   24296
   24294   24292   24295   24297   24294   24292   24295   24298
   24295   24298   24301   24302   24295   24298   24301   24303
   24295   24298   24301   24304   24296   24295   24298   24299
   24296   24295   24298   24300   24296   24295   24298   24301
   24297   24295   24298   24299   24297   24295   24298   24300
   24297   24295   24298   24301   24299   24298   24301   24302
   24299   24298   24301   24303   24299   24298   24301   24304
   24300   24298   24301   24302   24300   24298   24301   24303
   24300   24298   24301   24304   24305   24308   24311   24312
   24305   24308   24311   24313   24305   24308   24311   24314
   24306   24305   24308   24309   24306   24305   24308   24310
   24306   24305   24308   24311   24307   24305   24308   24309
   24307   24305   24308   24310   24307   24305   24308   24311
   24308   24311   24314   24315   24308   24311   24314   24316
   24308   24311   24314   24317   24309   24308   24311   24312
   24309   24308   24311   24313   24309   24308   24311   24314
   24310   24308   24311   24312   24310   24308   24311   24313
   24310   24308   24311   24314   24311   24314   24317   24318
   24311   24314   24317   24319   24311   24314   24317   24320
   24312   24311   24314   24315   24312   24311   24314   24316
   24312   24311   24314   24317   24313   24311   24314   24315
   24313   24311   24314   24316   24313   24311   24314   24317
   24314   24317   24320   24321   24314   24317   24320   24322
   24314   24317   24320   24323   24315   24314   24317   24318
   24315   24314   24317   24319   24315   24314   24317   24320
   24316   24314   24317   24318   24316   24314   24317   24319
   24316   24314   24317   24320   24317   24320   24323   24324
   24317   24320   24323   24325   24317   24320   24323   24326
   24318   24317   24320   24321   24318   24317   24320   24322
   24318   24317   24320   24323   24319   24317   24320   24321
   24319   24317   24320   24322   24319   24317   24320   24323
   24320   24323   24326   24327   24320   24323   24326   24328
   24320   24323   24326   24329   24321   24320   24323   24324
   24321   24320   24323   24325   24321   24320   24323   24326
   24322   24320   24323   24324   24322   24320   24323   24325
   24322   24320   24323   24326   24323   24326   24329   24330
   24323   24326   24329   24331   24323   24326   24329   24332
   24324   24323   24326   24327   24324   24323   24326   24328
   24324   24323   24326   24329   24325   24323   24326   24327
   24325   24323   24326   24328   24325   24323   24326   24329
   24326   24329   24332   24333   24326   24329   24332   24334
   24326   24329   24332   24335   24327   24326   24329   24330
   24327   24326   24329   24331   24327   24326   24329   24332
   24328   24326   24329   24330   24328   24326   24329   24331
   24328   24326   24329   24332   24329   24332   24335   24336
   24329   24332   24335   24337   24329   24332   24335   24338
   24330   24329   24332   24333   24330   24329   24332   24334
   24330   24329   24332   24335   24331   24329   24332   24333
   24331   24329   24332   24334   24331   24329   24332   24335
   24332   24335   24338   24339   24332   24335   24338   24340
   24332   24335   24338   24341   24333   24332   24335   24336
   24333   24332   24335   24337   24333   24332   24335   24338
   24334   24332   24335   24336   24334   24332   24335   24337
   24334   24332   24335   24338   24336   24335   24338   24339
   24336   24335   24338   24340   24336   24335   24338   24341
   24337   24335   24338   24339   24337   24335   24338   24340
   24337   24335   24338   24341   24342   24355   24358   24359
   24342   24355   24358   24360   24342   24355   24358   24365
   24343   24342   24347   24348   24343   24342   24347   24349
   24343   24342   24347   24350   24343   24342   24351   24352
   24343   24342   24351   24353   24343   24342   24351   24354
   24343   24342   24355   24356   24343   24342   24355   24357
   24343   24342   24355   24358   24347   24342   24343   24344
   24347   24342   24343   24345   24347   24342   24343   24346
   24347   24342   24351   24352   24347   24342   24351   24353
   24347   24342   24351   24354   24347   24342   24355   24356
   24347   24342   24355   24357   24347   24342   24355   24358
   24351   24342   24343   24344   24351   24342   24343   24345
   24351   24342   24343   24346   24351   24342   24347   24348
   24351   24342   24347   24349   24351   24342   24347   24350
   24351   24342   24355   24356   24351   24342   24355   24357
   24351   24342   24355   24358   24355   24342   24343   24344
   24355   24342   24343   24345   24355   24342   24343   24346
   24355   24342   24347   24348   24355   24342   24347   24349
   24355   24342   24347   24350   24355   24342   24351   24352
   24355   24342   24351   24353   24355   24342   24351   24354
   24355   24358   24365   24361   24356   24355   24358   24359
   24356   24355   24358   24360   24356   24355   24358   24365
   24357   24355   24358   24359   24357   24355   24358   24360
   24357   24355   24358   24365   24359   24358   24365   24361
   24360   24358   24365   24361   24361   24364   24366   24367
   24361   24364   24366   24368   24361   24364   24366   24369
   24362   24361   24365   24358   24362   24361   24364   24366
   24363   24361   24365   24358   24363   24361   24364   24366
   24364   24361   24365   24358   24364   24366   24369   24370
   24364   24366   24369   24377   24364   24366   24369   24371
   24365   24361   24364   24366   24366   24369   24377   24378
   24366   24369   24377   24379   24366   24369   24377   24380
   24366   24369   24371   24372   24367   24366   24369   24370
   24367   24366   24369   24377   24367   24366   24369   24371
   24368   24366   24369   24370   24368   24366   24369   24377
   24368   24366   24369   24371   24369   24377   24380   24381
   24369   24371   24372   24374   24369   24371   24372   24373
   24370   24369   24377   24378   24370   24369   24377   24379
   24370   24369   24377   24380   24370   24369   24371   24372
   24371   24372   24374   24375   24371   24372   24374   24376
   24371   24372   24374   24386   24371   24369   24377   24378
   24371   24369   24377   24379   24371   24369   24377   24380
   24372   24374   24386   24387   24372   24374   24386   24388
   24372   24374   24386   24389   24373   24372   24374   24375
   24373   24372   24374   24376   24373   24372   24374   24386
   24374   24386   24389   24390   24374   24386   24389   24391
   24374   24386   24389   24392   24375   24374   24386   24387
   24375   24374   24386   24388   24375   24374   24386   24389
   24376   24374   24386   24387   24376   24374   24386   24388
   24376   24374   24386   24389   24377   24369   24371   24372
   24377   24380   24381   24383   24377   24380   24381   24382
   24378   24377   24380   24381   24379   24377   24380   24381
   24380   24381   24383   24384   24380   24381   24383   24385
   24380   24381   24383   24423   24381   24383   24423   24424
   24381   24383   24423   24425   24381   24383   24423   24426
   24382   24381   24383   24384   24382   24381   24383   24385
   24382   24381   24383   24423   24383   24423   24426   24427
   24383   24423   24426   24428   24383   24423   24426   24429
   24384   24383   24423   24424   24384   24383   24423   24425
   24384   24383   24423   24426   24385   24383   24423   24424
   24385   24383   24423   24425   24385   24383   24423   24426
   24386   24389   24392   24393   24386   24389   24392   24394
   24386   24389   24392   24395   24387   24386   24389   24390
   24387   24386   24389   24391   24387   24386   24389   24392
   24388   24386   24389   24390   24388   24386   24389   24391
   24388   24386   24389   24392   24389   24392   24395   24396
   24389   24392   24395   24397   24389   24392   24395   24398
   24390   24389   24392   24393   24390   24389   24392   24394
   24390   24389   24392   24395   24391   24389   24392   24393
   24391   24389   24392   24394   24391   24389   24392   24395
   24392   24395   24398   24399   24392   24395   24398   24400
   24392   24395   24398   24401   24393   24392   24395   24396
   24393   24392   24395   24397   24393   24392   24395   24398
   24394   24392   24395   24396   24394   24392   24395   24397
   24394   24392   24395   24398   24395   24398   24401   24402
   24395   24398   24401   24403   24395   24398   24401   24404
   24396   24395   24398   24399   24396   24395   24398   24400
   24396   24395   24398   24401   24397   24395   24398   24399
   24397   24395   24398   24400   24397   24395   24398   24401
   24398   24401   24404   24405   24398   24401   24404   24406
   24398   24401   24404   24407   24399   24398   24401   24402
   24399   24398   24401   24403   24399   24398   24401   24404
   24400   24398   24401   24402   24400   24398   24401   24403
   24400   24398   24401   24404   24401   24404   24407   24408
   24401   24404   24407   24409   24401   24404   24407   24410
   24402   24401   24404   24405   24402   24401   24404   24406
   24402   24401   24404   24407   24403   24401   24404   24405
   24403   24401   24404   24406   24403   24401   24404   24407
   24404   24407   24410   24411   24404   24407   24410   24412
   24404   24407   24410   24413   24405   24404   24407   24408
   24405   24404   24407   24409   24405   24404   24407   24410
   24406   24404   24407   24408   24406   24404   24407   24409
   24406   24404   24407   24410   24407   24410   24413   24414
   24407   24410   24413   24415   24407   24410   24413   24416
   24408   24407   24410   24411   24408   24407   24410   24412
   24408   24407   24410   24413   24409   24407   24410   24411
   24409   24407   24410   24412   24409   24407   24410   24413
   24410   24413   24416   24417   24410   24413   24416   24418
   24410   24413   24416   24419   24411   24410   24413   24414
   24411   24410   24413   24415   24411   24410   24413   24416
   24412   24410   24413   24414   24412   24410   24413   24415
   24412   24410   24413   24416   24413   24416   24419   24420
   24413   24416   24419   24421   24413   24416   24419   24422
   24414   24413   24416   24417   24414   24413   24416   24418
   24414   24413   24416   24419   24415   24413   24416   24417
   24415   24413   24416   24418   24415   24413   24416   24419
   24417   24416   24419   24420   24417   24416   24419   24421
   24417   24416   24419   24422   24418   24416   24419   24420
   24418   24416   24419   24421   24418   24416   24419   24422
   24423   24426   24429   24430   24423   24426   24429   24431
   24423   24426   24429   24432   24424   24423   24426   24427
   24424   24423   24426   24428   24424   24423   24426   24429
   24425   24423   24426   24427   24425   24423   24426   24428
   24425   24423   24426   24429   24426   24429   24432   24433
   24426   24429   24432   24434   24426   24429   24432   24435
   24427   24426   24429   24430   24427   24426   24429   24431
   24427   24426   24429   24432   24428   24426   24429   24430
   24428   24426   24429   24431   24428   24426   24429   24432
   24429   24432   24435   24436   24429   24432   24435   24437
   24429   24432   24435   24438   24430   24429   24432   24433
   24430   24429   24432   24434   24430   24429   24432   24435
   24431   24429   24432   24433   24431   24429   24432   24434
   24431   24429   24432   24435   24432   24435   24438   24439
   24432   24435   24438   24440   24432   24435   24438   24441
   24433   24432   24435   24436   24433   24432   24435   24437
   24433   24432   24435   24438   24434   24432   24435   24436
   24434   24432   24435   24437   24434   24432   24435   24438
   24435   24438   24441   24442   24435   24438   24441   24443
   24435   24438   24441   24444   24436   24435   24438   24439
   24436   24435   24438   24440   24436   24435   24438   24441
   24437   24435   24438   24439   24437   24435   24438   24440
   24437   24435   24438   24441   24438   24441   24444   24445
   24438   24441   24444   24446   24438   24441   24444   24447
   24439   24438   24441   24442   24439   24438   24441   24443
   24439   24438   24441   24444   24440   24438   24441   24442
   24440   24438   24441   24443   24440   24438   24441   24444
   24441   24444   24447   24448   24441   24444   24447   24449
   24441   24444   24447   24450   24442   24441   24444   24445
   24442   24441   24444   24446   24442   24441   24444   24447
   24443   24441   24444   24445   24443   24441   24444   24446
   24443   24441   24444   24447   24444   24447   24450   24451
   24444   24447   24450   24452   24444   24447   24450   24453
   24445   24444   24447   24448   24445   24444   24447   24449
   24445   24444   24447   24450   24446   24444   24447   24448
   24446   24444   24447   24449   24446   24444   24447   24450
   24447   24450   24453   24454   24447   24450   24453   24455
   24447   24450   24453   24456   24448   24447   24450   24451
   24448   24447   24450   24452   24448   24447   24450   24453
   24449   24447   24450   24451   24449   24447   24450   24452
   24449   24447   24450   24453   24450   24453   24456   24457
   24450   24453   24456   24458   24450   24453   24456   24459
   24451   24450   24453   24454   24451   24450   24453   24455
   24451   24450   24453   24456   24452   24450   24453   24454
   24452   24450   24453   24455   24452   24450   24453   24456
   24454   24453   24456   24457   24454   24453   24456   24458
   24454   24453   24456   24459   24455   24453   24456   24457
   24455   24453   24456   24458   24455   24453   24456   24459
   24460   24473   24476   24477   24460   24473   24476   24478
   24460   24473   24476   24483   24461   24460   24465   24466
   24461   24460   24465   24467   24461   24460   24465   24468
   24461   24460   24469   24470   24461   24460   24469   24471
   24461   24460   24469   24472   24461   24460   24473   24474
   24461   24460   24473   24475   24461   24460   24473   24476
   24465   24460   24461   24462   24465   24460   24461   24463
   24465   24460   24461   24464   24465   24460   24469   24470
   24465   24460   24469   24471   24465   24460   24469   24472
   24465   24460   24473   24474   24465   24460   24473   24475
   24465   24460   24473   24476   24469   24460   24461   24462
   24469   24460   24461   24463   24469   24460   24461   24464
   24469   24460   24465   24466   24469   24460   24465   24467
   24469   24460   24465   24468   24469   24460   24473   24474
   24469   24460   24473   24475   24469   24460   24473   24476
   24473   24460   24461   24462   24473   24460   24461   24463
   24473   24460   24461   24464   24473   24460   24465   24466
   24473   24460   24465   24467   24473   24460   24465   24468
   24473   24460   24469   24470   24473   24460   24469   24471
   24473   24460   24469   24472   24473   24476   24483   24479
   24474   24473   24476   24477   24474   24473   24476   24478
   24474   24473   24476   24483   24475   24473   24476   24477
   24475   24473   24476   24478   24475   24473   24476   24483
   24477   24476   24483   24479   24478   24476   24483   24479
   24479   24482   24484   24485   24479   24482   24484   24486
   24479   24482   24484   24487   24480   24479   24483   24476
   24480   24479   24482   24484   24481   24479   24483   24476
   24481   24479   24482   24484   24482   24479   24483   24476
   24482   24484   24487   24488   24482   24484   24487   24495
   24482   24484   24487   24489   24483   24479   24482   24484
   24484   24487   24495   24496   24484   24487   24495   24497
   24484   24487   24495   24498   24484   24487   24489   24490
   24485   24484   24487   24488   24485   24484   24487   24495
   24485   24484   24487   24489   24486   24484   24487   24488
   24486   24484   24487   24495   24486   24484   24487   24489
   24487   24495   24498   24499   24487   24489   24490   24492
   24487   24489   24490   24491   24488   24487   24495   24496
   24488   24487   24495   24497   24488   24487   24495   24498
   24488   24487   24489   24490   24489   24490   24492   24493
   24489   24490   24492   24494   24489   24490   24492   24504
   24489   24487   24495   24496   24489   24487   24495   24497
   24489   24487   24495   24498   24490   24492   24504   24505
   24490   24492   24504   24506   24490   24492   24504   24507
   24491   24490   24492   24493   24491   24490   24492   24494
   24491   24490   24492   24504   24492   24504   24507   24508
   24492   24504   24507   24509   24492   24504   24507   24510
   24493   24492   24504   24505   24493   24492   24504   24506
   24493   24492   24504   24507   24494   24492   24504   24505
   24494   24492   24504   24506   24494   24492   24504   24507
   24495   24487   24489   24490   24495   24498   24499   24501
   24495   24498   24499   24500   24496   24495   24498   24499
   24497   24495   24498   24499   24498   24499   24501   24502
   24498   24499   24501   24503   24498   24499   24501   24541
   24499   24501   24541   24542   24499   24501   24541   24543
   24499   24501   24541   24544   24500   24499   24501   24502
   24500   24499   24501   24503   24500   24499   24501   24541
   24501   24541   24544   24545   24501   24541   24544   24546
   24501   24541   24544   24547   24502   24501   24541   24542
   24502   24501   24541   24543   24502   24501   24541   24544
   24503   24501   24541   24542   24503   24501   24541   24543
   24503   24501   24541   24544   24504   24507   24510   24511
   24504   24507   24510   24512   24504   24507   24510   24513
   24505   24504   24507   24508   24505   24504   24507   24509
   24505   24504   24507   24510   24506   24504   24507   24508
   24506   24504   24507   24509   24506   24504   24507   24510
   24507   24510   24513   24514   24507   24510   24513   24515
   24507   24510   24513   24516   24508   24507   24510   24511
   24508   24507   24510   24512   24508   24507   24510   24513
   24509   24507   24510   24511   24509   24507   24510   24512
   24509   24507   24510   24513   24510   24513   24516   24517
   24510   24513   24516   24518   24510   24513   24516   24519
   24511   24510   24513   24514   24511   24510   24513   24515
   24511   24510   24513   24516   24512   24510   24513   24514
   24512   24510   24513   24515   24512   24510   24513   24516
   24513   24516   24519   24520   24513   24516   24519   24521
   24513   24516   24519   24522   24514   24513   24516   24517
   24514   24513   24516   24518   24514   24513   24516   24519
   24515   24513   24516   24517   24515   24513   24516   24518
   24515   24513   24516   24519   24516   24519   24522   24523
   24516   24519   24522   24524   24516   24519   24522   24525
   24517   24516   24519   24520   24517   24516   24519   24521
   24517   24516   24519   24522   24518   24516   24519   24520
   24518   24516   24519   24521   24518   24516   24519   24522
   24519   24522   24525   24526   24519   24522   24525   24527
   24519   24522   24525   24528   24520   24519   24522   24523
   24520   24519   24522   24524   24520   24519   24522   24525
   24521   24519   24522   24523   24521   24519   24522   24524
   24521   24519   24522   24525   24522   24525   24528   24529
   24522   24525   24528   24530   24522   24525   24528   24531
   24523   24522   24525   24526   24523   24522   24525   24527
   24523   24522   24525   24528   24524   24522   24525   24526
   24524   24522   24525   24527   24524   24522   24525   24528
   24525   24528   24531   24532   24525   24528   24531   24533
   24525   24528   24531   24534   24526   24525   24528   24529
   24526   24525   24528   24530   24526   24525   24528   24531
   24527   24525   24528   24529   24527   24525   24528   24530
   24527   24525   24528   24531   24528   24531   24534   24535
   24528   24531   24534   24536   24528   24531   24534   24537
   24529   24528   24531   24532   24529   24528   24531   24533
   24529   24528   24531   24534   24530   24528   24531   24532
   24530   24528   24531   24533   24530   24528   24531   24534
   24531   24534   24537   24538   24531   24534   24537   24539
   24531   24534   24537   24540   24532   24531   24534   24535
   24532   24531   24534   24536   24532   24531   24534   24537
   24533   24531   24534   24535   24533   24531   24534   24536
   24533   24531   24534   24537   24535   24534   24537   24538
   24535   24534   24537   24539   24535   24534   24537   24540
   24536   24534   24537   24538   24536   24534   24537   24539
   24536   24534   24537   24540   24541   24544   24547   24548
   24541   24544   24547   24549   24541   24544   24547   24550
   24542   24541   24544   24545   24542   24541   24544   24546
   24542   24541   24544   24547   24543   24541   24544   24545
   24543   24541   24544   24546   24543   24541   24544   24547
   24544   24547   24550   24551   24544   24547   24550   24552
   24544   24547   24550   24553   24545   24544   24547   24548
   24545   24544   24547   24549   24545   24544   24547   24550
   24546   24544   24547   24548   24546   24544   24547   24549
   24546   24544   24547   24550   24547   24550   24553   24554
   24547   24550   24553   24555   24547   24550   24553   24556
   24548   24547   24550   24551   24548   24547   24550   24552
   24548   24547   24550   24553   24549   24547   24550   24551
   24549   24547   24550   24552   24549   24547   24550   24553
   24550   24553   24556   24557   24550   24553   24556   24558
   24550   24553   24556   24559   24551   24550   24553   24554
   24551   24550   24553   24555   24551   24550   24553   24556
   24552   24550   24553   24554   24552   24550   24553   24555
   24552   24550   24553   24556   24553   24556   24559   24560
   24553   24556   24559   24561   24553   24556   24559   24562
   24554   24553   24556   24557   24554   24553   24556   24558
   24554   24553   24556   24559   24555   24553   24556   24557
   24555   24553   24556   24558   24555   24553   24556   24559
   24556   24559   24562   24563   24556   24559   24562   24564
   24556   24559   24562   24565   24557   24556   24559   24560
   24557   24556   24559   24561   24557   24556   24559   24562
   24558   24556   24559   24560   24558   24556   24559   24561
   24558   24556   24559   24562   24559   24562   24565   24566
   24559   24562   24565   24567   24559   24562   24565   24568
   24560   24559   24562   24563   24560   24559   24562   24564
   24560   24559   24562   24565   24561   24559   24562   24563
   24561   24559   24562   24564   24561   24559   24562   24565
   24562   24565   24568   24569   24562   24565   24568   24570
   24562   24565   24568   24571   24563   24562   24565   24566
   24563   24562   24565   24567   24563   24562   24565   24568
   24564   24562   24565   24566   24564   24562   24565   24567
   24564   24562   24565   24568   24565   24568   24571   24572
   24565   24568   24571   24573   24565   24568   24571   24574
   24566   24565   24568   24569   24566   24565   24568   24570
   24566   24565   24568   24571   24567   24565   24568   24569
   24567   24565   24568   24570   24567   24565   24568   24571
   24568   24571   24574   24575   24568   24571   24574   24576
   24568   24571   24574   24577   24569   24568   24571   24572
   24569   24568   24571   24573   24569   24568   24571   24574
   24570   24568   24571   24572   24570   24568   24571   24573
   24570   24568   24571   24574   24572   24571   24574   24575
   24572   24571   24574   24576   24572   24571   24574   24577
   24573   24571   24574   24575   24573   24571   24574   24576
   24573   24571   24574   24577   24578   24591   24594   24595
   24578   24591   24594   24596   24578   24591   24594   24601
   24579   24578   24583   24584   24579   24578   24583   24585
   24579   24578   24583   24586   24579   24578   24587   24588
   24579   24578   24587   24589   24579   24578   24587   24590
   24579   24578   24591   24592   24579   24578   24591   24593
   24579   24578   24591   24594   24583   24578   24579   24580
   24583   24578   24579   24581   24583   24578   24579   24582
   24583   24578   24587   24588   24583   24578   24587   24589
   24583   24578   24587   24590   24583   24578   24591   24592
   24583   24578   24591   24593   24583   24578   24591   24594
   24587   24578   24579   24580   24587   24578   24579   24581
   24587   24578   24579   24582   24587   24578   24583   24584
   24587   24578   24583   24585   24587   24578   24583   24586
   24587   24578   24591   24592   24587   24578   24591   24593
   24587   24578   24591   24594   24591   24578   24579   24580
   24591   24578   24579   24581   24591   24578   24579   24582
   24591   24578   24583   24584   24591   24578   24583   24585
   24591   24578   24583   24586   24591   24578   24587   24588
   24591   24578   24587   24589   24591   24578   24587   24590
   24591   24594   24601   24597   24592   24591   24594   24595
   24592   24591   24594   24596   24592   24591   24594   24601
   24593   24591   24594   24595   24593   24591   24594   24596
   24593   24591   24594   24601   24595   24594   24601   24597
   24596   24594   24601   24597   24597   24600   24602   24603
   24597   24600   24602   24604   24597   24600   24602   24605
   24598   24597   24601   24594   24598   24597   24600   24602
   24599   24597   24601   24594   24599   24597   24600   24602
   24600   24597   24601   24594   24600   24602   24605   24606
   24600   24602   24605   24613   24600   24602   24605   24607
   24601   24597   24600   24602   24602   24605   24613   24614
   24602   24605   24613   24615   24602   24605   24613   24616
   24602   24605   24607   24608   24603   24602   24605   24606
   24603   24602   24605   24613   24603   24602   24605   24607
   24604   24602   24605   24606   24604   24602   24605   24613
   24604   24602   24605   24607   24605   24613   24616   24617
   24605   24607   24608   24610   24605   24607   24608   24609
   24606   24605   24613   24614   24606   24605   24613   24615
   24606   24605   24613   24616   24606   24605   24607   24608
   24607   24608   24610   24611   24607   24608   24610   24612
   24607   24608   24610   24622   24607   24605   24613   24614
   24607   24605   24613   24615   24607   24605   24613   24616
   24608   24610   24622   24623   24608   24610   24622   24624
   24608   24610   24622   24625   24609   24608   24610   24611
   24609   24608   24610   24612   24609   24608   24610   24622
   24610   24622   24625   24626   24610   24622   24625   24627
   24610   24622   24625   24628   24611   24610   24622   24623
   24611   24610   24622   24624   24611   24610   24622   24625
   24612   24610   24622   24623   24612   24610   24622   24624
   24612   24610   24622   24625   24613   24605   24607   24608
   24613   24616   24617   24619   24613   24616   24617   24618
   24614   24613   24616   24617   24615   24613   24616   24617
   24616   24617   24619   24620   24616   24617   24619   24621
   24616   24617   24619   24659   24617   24619   24659   24660
   24617   24619   24659   24661   24617   24619   24659   24662
   24618   24617   24619   24620   24618   24617   24619   24621
   24618   24617   24619   24659   24619   24659   24662   24663
   24619   24659   24662   24664   24619   24659   24662   24665
   24620   24619   24659   24660   24620   24619   24659   24661
   24620   24619   24659   24662   24621   24619   24659   24660
   24621   24619   24659   24661   24621   24619   24659   24662
   24622   24625   24628   24629   24622   24625   24628   24630
   24622   24625   24628   24631   24623   24622   24625   24626
   24623   24622   24625   24627   24623   24622   24625   24628
   24624   24622   24625   24626   24624   24622   24625   24627
   24624   24622   24625   24628   24625   24628   24631   24632
   24625   24628   24631   24633   24625   24628   24631   24634
   24626   24625   24628   24629   24626   24625   24628   24630
   24626   24625   24628   24631   24627   24625   24628   24629
   24627   24625   24628   24630   24627   24625   24628   24631
   24628   24631   24634   24635   24628   24631   24634   24636
   24628   24631   24634   24637   24629   24628   24631   24632
   24629   24628   24631   24633   24629   24628   24631   24634
   24630   24628   24631   24632   24630   24628   24631   24633
   24630   24628   24631   24634   24631   24634   24637   24638
   24631   24634   24637   24639   24631   24634   24637   24640
   24632   24631   24634   24635   24632   24631   24634   24636
   24632   24631   24634   24637   24633   24631   24634   24635
   24633   24631   24634   24636   24633   24631   24634   24637
   24634   24637   24640   24641   24634   24637   24640   24642
   24634   24637   24640   24643   24635   24634   24637   24638
   24635   24634   24637   24639   24635   24634   24637   24640
   24636   24634   24637   24638   24636   24634   24637   24639
   24636   24634   24637   24640   24637   24640   24643   24644
   24637   24640   24643   24645   24637   24640   24643   24646
   24638   24637   24640   24641   24638   24637   24640   24642
   24638   24637   24640   24643   24639   24637   24640   24641
   24639   24637   24640   24642   24639   24637   24640   24643
   24640   24643   24646   24647   24640   24643   24646   24648
   24640   24643   24646   24649   24641   24640   24643   24644
   24641   24640   24643   24645   24641   24640   24643   24646
   24642   24640   24643   24644   24642   24640   24643   24645
   24642   24640   24643   24646   24643   24646   24649   24650
   24643   24646   24649   24651   24643   24646   24649   24652
   24644   24643   24646   24647   24644   24643   24646   24648
   24644   24643   24646   24649   24645   24643   24646   24647
   24645   24643   24646   24648   24645   24643   24646   24649
   24646   24649   24652   24653   24646   24649   24652   24654
   24646   24649   24652   24655   24647   24646   24649   24650
   24647   24646   24649   24651   24647   24646   24649   24652
   24648   24646   24649   24650   24648   24646   24649   24651
   24648   24646   24649   24652   24649   24652   24655   24656
   24649   24652   24655   24657   24649   24652   24655   24658
   24650   24649   24652   24653   24650   24649   24652   24654
   24650   24649   24652   24655   24651   24649   24652   24653
   24651   24649   24652   24654   24651   24649   24652   24655
   24653   24652   24655   24656   24653   24652   24655   24657
   24653   24652   24655   24658   24654   24652   24655   24656
   24654   24652   24655   24657   24654   24652   24655   24658
   24659   24662   24665   24666   24659   24662   24665   24667
   24659   24662   24665   24668   24660   24659   24662   24663
   24660   24659   24662   24664   24660   24659   24662   24665
   24661   24659   24662   24663   24661   24659   24662   24664
   24661   24659   24662   24665   24662   24665   24668   24669
   24662   24665   24668   24670   24662   24665   24668   24671
   24663   24662   24665   24666   24663   24662   24665   24667
   24663   24662   24665   24668   24664   24662   24665   24666
   24664   24662   24665   24667   24664   24662   24665   24668
   24665   24668   24671   24672   24665   24668   24671   24673
   24665   24668   24671   24674   24666   24665   24668   24669
   24666   24665   24668   24670   24666   24665   24668   24671
   24667   24665   24668   24669   24667   24665   24668   24670
   24667   24665   24668   24671   24668   24671   24674   24675
   24668   24671   24674   24676   24668   24671   24674   24677
   24669   24668   24671   24672   24669   24668   24671   24673
   24669   24668   24671   24674   24670   24668   24671   24672
   24670   24668   24671   24673   24670   24668   24671   24674
   24671   24674   24677   24678   24671   24674   24677   24679
   24671   24674   24677   24680   24672   24671   24674   24675
   24672   24671   24674   24676   24672   24671   24674   24677
   24673   24671   24674   24675   24673   24671   24674   24676
   24673   24671   24674   24677   24674   24677   24680   24681
   24674   24677   24680   24682   24674   24677   24680   24683
   24675   24674   24677   24678   24675   24674   24677   24679
   24675   24674   24677   24680   24676   24674   24677   24678
   24676   24674   24677   24679   24676   24674   24677   24680
   24677   24680   24683   24684   24677   24680   24683   24685
   24677   24680   24683   24686   24678   24677   24680   24681
   24678   24677   24680   24682   24678   24677   24680   24683
   24679   24677   24680   24681   24679   24677   24680   24682
   24679   24677   24680   24683   24680   24683   24686   24687
   24680   24683   24686   24688   24680   24683   24686   24689
   24681   24680   24683   24684   24681   24680   24683   24685
   24681   24680   24683   24686   24682   24680   24683   24684
   24682   24680   24683   24685   24682   24680   24683   24686
   24683   24686   24689   24690   24683   24686   24689   24691
   24683   24686   24689   24692   24684   24683   24686   24687
   24684   24683   24686   24688   24684   24683   24686   24689
   24685   24683   24686   24687   24685   24683   24686   24688
   24685   24683   24686   24689   24686   24689   24692   24693
   24686   24689   24692   24694   24686   24689   24692   24695
   24687   24686   24689   24690   24687   24686   24689   24691
   24687   24686   24689   24692   24688   24686   24689   24690
   24688   24686   24689   24691   24688   24686   24689   24692
   24690   24689   24692   24693   24690   24689   24692   24694
   24690   24689   24692   24695   24691   24689   24692   24693
   24691   24689   24692   24694   24691   24689   24692   24695
   24696   24709   24712   24713   24696   24709   24712   24714
   24696   24709   24712   24719   24697   24696   24701   24702
   24697   24696   24701   24703   24697   24696   24701   24704
   24697   24696   24705   24706   24697   24696   24705   24707
   24697   24696   24705   24708   24697   24696   24709   24710
   24697   24696   24709   24711   24697   24696   24709   24712
   24701   24696   24697   24698   24701   24696   24697   24699
   24701   24696   24697   24700   24701   24696   24705   24706
   24701   24696   24705   24707   24701   24696   24705   24708
   24701   24696   24709   24710   24701   24696   24709   24711
   24701   24696   24709   24712   24705   24696   24697   24698
   24705   24696   24697   24699   24705   24696   24697   24700
   24705   24696   24701   24702   24705   24696   24701   24703
   24705   24696   24701   24704   24705   24696   24709   24710
   24705   24696   24709   24711   24705   24696   24709   24712
   24709   24696   24697   24698   24709   24696   24697   24699
   24709   24696   24697   24700   24709   24696   24701   24702
   24709   24696   24701   24703   24709   24696   24701   24704
   24709   24696   24705   24706   24709   24696   24705   24707
   24709   24696   24705   24708   24709   24712   24719   24715
   24710   24709   24712   24713   24710   24709   24712   24714
   24710   24709   24712   24719   24711   24709   24712   24713
   24711   24709   24712   24714   24711   24709   24712   24719
   24713   24712   24719   24715   24714   24712   24719   24715
   24715   24718   24720   24721   24715   24718   24720   24722
   24715   24718   24720   24723   24716   24715   24719   24712
   24716   24715   24718   24720   24717   24715   24719   24712
   24717   24715   24718   24720   24718   24715   24719   24712
   24718   24720   24723   24724   24718   24720   24723   24731
   24718   24720   24723   24725   24719   24715   24718   24720
   24720   24723   24731   24732   24720   24723   24731   24733
   24720   24723   24731   24734   24720   24723   24725   24726
   24721   24720   24723   24724   24721   24720   24723   24731
   24721   24720   24723   24725   24722   24720   24723   24724
   24722   24720   24723   24731   24722   24720   24723   24725
   24723   24731   24734   24735   24723   24725   24726   24728
   24723   24725   24726   24727   24724   24723   24731   24732
   24724   24723   24731   24733   24724   24723   24731   24734
   24724   24723   24725   24726   24725   24726   24728   24729
   24725   24726   24728   24730   24725   24726   24728   24740
   24725   24723   24731   24732   24725   24723   24731   24733
   24725   24723   24731   24734   24726   24728   24740   24741
   24726   24728   24740   24742   24726   24728   24740   24743
   24727   24726   24728   24729   24727   24726   24728   24730
   24727   24726   24728   24740   24728   24740   24743   24744
   24728   24740   24743   24745   24728   24740   24743   24746
   24729   24728   24740   24741   24729   24728   24740   24742
   24729   24728   24740   24743   24730   24728   24740   24741
   24730   24728   24740   24742   24730   24728   24740   24743
   24731   24723   24725   24726   24731   24734   24735   24737
   24731   24734   24735   24736   24732   24731   24734   24735
   24733   24731   24734   24735   24734   24735   24737   24738
   24734   24735   24737   24739   24734   24735   24737   24777
   24735   24737   24777   24778   24735   24737   24777   24779
   24735   24737   24777   24780   24736   24735   24737   24738
   24736   24735   24737   24739   24736   24735   24737   24777
   24737   24777   24780   24781   24737   24777   24780   24782
   24737   24777   24780   24783   24738   24737   24777   24778
   24738   24737   24777   24779   24738   24737   24777   24780
   24739   24737   24777   24778   24739   24737   24777   24779
   24739   24737   24777   24780   24740   24743   24746   24747
   24740   24743   24746   24748   24740   24743   24746   24749
   24741   24740   24743   24744   24741   24740   24743   24745
   24741   24740   24743   24746   24742   24740   24743   24744
   24742   24740   24743   24745   24742   24740   24743   24746
   24743   24746   24749   24750   24743   24746   24749   24751
   24743   24746   24749   24752   24744   24743   24746   24747
   24744   24743   24746   24748   24744   24743   24746   24749
   24745   24743   24746   24747   24745   24743   24746   24748
   24745   24743   24746   24749   24746   24749   24752   24753
   24746   24749   24752   24754   24746   24749   24752   24755
   24747   24746   24749   24750   24747   24746   24749   24751
   24747   24746   24749   24752   24748   24746   24749   24750
   24748   24746   24749   24751   24748   24746   24749   24752
   24749   24752   24755   24756   24749   24752   24755   24757
   24749   24752   24755   24758   24750   24749   24752   24753
   24750   24749   24752   24754   24750   24749   24752   24755
   24751   24749   24752   24753   24751   24749   24752   24754
   24751   24749   24752   24755   24752   24755   24758   24759
   24752   24755   24758   24760   24752   24755   24758   24761
   24753   24752   24755   24756   24753   24752   24755   24757
   24753   24752   24755   24758   24754   24752   24755   24756
   24754   24752   24755   24757   24754   24752   24755   24758
   24755   24758   24761   24762   24755   24758   24761   24763
   24755   24758   24761   24764   24756   24755   24758   24759
   24756   24755   24758   24760   24756   24755   24758   24761
   24757   24755   24758   24759   24757   24755   24758   24760
   24757   24755   24758   24761   24758   24761   24764   24765
   24758   24761   24764   24766   24758   24761   24764   24767
   24759   24758   24761   24762   24759   24758   24761   24763
   24759   24758   24761   24764   24760   24758   24761   24762
   24760   24758   24761   24763   24760   24758   24761   24764
   24761   24764   24767   24768   24761   24764   24767   24769
   24761   24764   24767   24770   24762   24761   24764   24765
   24762   24761   24764   24766   24762   24761   24764   24767
   24763   24761   24764   24765   24763   24761   24764   24766
   24763   24761   24764   24767   24764   24767   24770   24771
   24764   24767   24770   24772   24764   24767   24770   24773
   24765   24764   24767   24768   24765   24764   24767   24769
   24765   24764   24767   24770   24766   24764   24767   24768
   24766   24764   24767   24769   24766   24764   24767   24770
   24767   24770   24773   24774   24767   24770   24773   24775
   24767   24770   24773   24776   24768   24767   24770   24771
   24768   24767   24770   24772   24768   24767   24770   24773
   24769   24767   24770   24771   24769   24767   24770   24772
   24769   24767   24770   24773   24771   24770   24773   24774
   24771   24770   24773   24775   24771   24770   24773   24776
   24772   24770   24773   24774   24772   24770   24773   24775
   24772   24770   24773   24776   24777   24780   24783   24784
   24777   24780   24783   24785   24777   24780   24783   24786
   24778   24777   24780   24781   24778   24777   24780   24782
   24778   24777   24780   24783   24779   24777   24780   24781
   24779   24777   24780   24782   24779   24777   24780   24783
   24780   24783   24786   24787   24780   24783   24786   24788
   24780   24783   24786   24789   24781   24780   24783   24784
   24781   24780   24783   24785   24781   24780   24783   24786
   24782   24780   24783   24784   24782   24780   24783   24785
   24782   24780   24783   24786   24783   24786   24789   24790
   24783   24786   24789   24791   24783   24786   24789   24792
   24784   24783   24786   24787   24784   24783   24786   24788
   24784   24783   24786   24789   24785   24783   24786   24787
   24785   24783   24786   24788   24785   24783   24786   24789
   24786   24789   24792   24793   24786   24789   24792   24794
   24786   24789   24792   24795   24787   24786   24789   24790
   24787   24786   24789   24791   24787   24786   24789   24792
   24788   24786   24789   24790   24788   24786   24789   24791
   24788   24786   24789   24792   24789   24792   24795   24796
   24789   24792   24795   24797   24789   24792   24795   24798
   24790   24789   24792   24793   24790   24789   24792   24794
   24790   24789   24792   24795   24791   24789   24792   24793
   24791   24789   24792   24794   24791   24789   24792   24795
   24792   24795   24798   24799   24792   24795   24798   24800
   24792   24795   24798   24801   24793   24792   24795   24796
   24793   24792   24795   24797   24793   24792   24795   24798
   24794   24792   24795   24796   24794   24792   24795   24797
   24794   24792   24795   24798   24795   24798   24801   24802
   24795   24798   24801   24803   24795   24798   24801   24804
   24796   24795   24798   24799   24796   24795   24798   24800
   24796   24795   24798   24801   24797   24795   24798   24799
   24797   24795   24798   24800   24797   24795   24798   24801
   24798   24801   24804   24805   24798   24801   24804   24806
   24798   24801   24804   24807   24799   24798   24801   24802
   24799   24798   24801   24803   24799   24798   24801   24804
   24800   24798   24801   24802   24800   24798   24801   24803
   24800   24798   24801   24804   24801   24804   24807   24808
   24801   24804   24807   24809   24801   24804   24807   24810
   24802   24801   24804   24805   24802   24801   24804   24806
   24802   24801   24804   24807   24803   24801   24804   24805
   24803   24801   24804   24806   24803   24801   24804   24807
   24804   24807   24810   24811   24804   24807   24810   24812
   24804   24807   24810   24813   24805   24804   24807   24808
   24805   24804   24807   24809   24805   24804   24807   24810
   24806   24804   24807   24808   24806   24804   24807   24809
   24806   24804   24807   24810   24808   24807   24810   24811
   24808   24807   24810   24812   24808   24807   24810   24813
   24809   24807   24810   24811   24809   24807   24810   24812
   24809   24807   24810   24813   24814   24827   24830   24831
   24814   24827   24830   24832   24814   24827   24830   24837
   24815   24814   24819   24820   24815   24814   24819   24821
   24815   24814   24819   24822   24815   24814   24823   24824
   24815   24814   24823   24825   24815   24814   24823   24826
   24815   24814   24827   24828   24815   24814   24827   24829
   24815   24814   24827   24830   24819   24814   24815   24816
   24819   24814   24815   24817   24819   24814   24815   24818
   24819   24814   24823   24824   24819   24814   24823   24825
   24819   24814   24823   24826   24819   24814   24827   24828
   24819   24814   24827   24829   24819   24814   24827   24830
   24823   24814   24815   24816   24823   24814   24815   24817
   24823   24814   24815   24818   24823   24814   24819   24820
   24823   24814   24819   24821   24823   24814   24819   24822
   24823   24814   24827   24828   24823   24814   24827   24829
   24823   24814   24827   24830   24827   24814   24815   24816
   24827   24814   24815   24817   24827   24814   24815   24818
   24827   24814   24819   24820   24827   24814   24819   24821
   24827   24814   24819   24822   24827   24814   24823   24824
   24827   24814   24823   24825   24827   24814   24823   24826
   24827   24830   24837   24833   24828   24827   24830   24831
   24828   24827   24830   24832   24828   24827   24830   24837
   24829   24827   24830   24831   24829   24827   24830   24832
   24829   24827   24830   24837   24831   24830   24837   24833
   24832   24830   24837   24833   24833   24836   24838   24839
   24833   24836   24838   24840   24833   24836   24838   24841
   24834   24833   24837   24830   24834   24833   24836   24838
   24835   24833   24837   24830   24835   24833   24836   24838
   24836   24833   24837   24830   24836   24838   24841   24842
   24836   24838   24841   24849   24836   24838   24841   24843
   24837   24833   24836   24838   24838   24841   24849   24850
   24838   24841   24849   24851   24838   24841   24849   24852
   24838   24841   24843   24844   24839   24838   24841   24842
   24839   24838   24841   24849   24839   24838   24841   24843
   24840   24838   24841   24842   24840   24838   24841   24849
   24840   24838   24841   24843   24841   24849   24852   24853
   24841   24843   24844   24846   24841   24843   24844   24845
   24842   24841   24849   24850   24842   24841   24849   24851
   24842   24841   24849   24852   24842   24841   24843   24844
   24843   24844   24846   24847   24843   24844   24846   24848
   24843   24844   24846   24858   24843   24841   24849   24850
   24843   24841   24849   24851   24843   24841   24849   24852
   24844   24846   24858   24859   24844   24846   24858   24860
   24844   24846   24858   24861   24845   24844   24846   24847
   24845   24844   24846   24848   24845   24844   24846   24858
   24846   24858   24861   24862   24846   24858   24861   24863
   24846   24858   24861   24864   24847   24846   24858   24859
   24847   24846   24858   24860   24847   24846   24858   24861
   24848   24846   24858   24859   24848   24846   24858   24860
   24848   24846   24858   24861   24849   24841   24843   24844
   24849   24852   24853   24855   24849   24852   24853   24854
   24850   24849   24852   24853   24851   24849   24852   24853
   24852   24853   24855   24856   24852   24853   24855   24857
   24852   24853   24855   24895   24853   24855   24895   24896
   24853   24855   24895   24897   24853   24855   24895   24898
   24854   24853   24855   24856   24854   24853   24855   24857
   24854   24853   24855   24895   24855   24895   24898   24899
   24855   24895   24898   24900   24855   24895   24898   24901
   24856   24855   24895   24896   24856   24855   24895   24897
   24856   24855   24895   24898   24857   24855   24895   24896
   24857   24855   24895   24897   24857   24855   24895   24898
   24858   24861   24864   24865   24858   24861   24864   24866
   24858   24861   24864   24867   24859   24858   24861   24862
   24859   24858   24861   24863   24859   24858   24861   24864
   24860   24858   24861   24862   24860   24858   24861   24863
   24860   24858   24861   24864   24861   24864   24867   24868
   24861   24864   24867   24869   24861   24864   24867   24870
   24862   24861   24864   24865   24862   24861   24864   24866
   24862   24861   24864   24867   24863   24861   24864   24865
   24863   24861   24864   24866   24863   24861   24864   24867
   24864   24867   24870   24871   24864   24867   24870   24872
   24864   24867   24870   24873   24865   24864   24867   24868
   24865   24864   24867   24869   24865   24864   24867   24870
   24866   24864   24867   24868   24866   24864   24867   24869
   24866   24864   24867   24870   24867   24870   24873   24874
   24867   24870   24873   24875   24867   24870   24873   24876
   24868   24867   24870   24871   24868   24867   24870   24872
   24868   24867   24870   24873   24869   24867   24870   24871
   24869   24867   24870   24872   24869   24867   24870   24873
   24870   24873   24876   24877   24870   24873   24876   24878
   24870   24873   24876   24879   24871   24870   24873   24874
   24871   24870   24873   24875   24871   24870   24873   24876
   24872   24870   24873   24874   24872   24870   24873   24875
   24872   24870   24873   24876   24873   24876   24879   24880
   24873   24876   24879   24881   24873   24876   24879   24882
   24874   24873   24876   24877   24874   24873   24876   24878
   24874   24873   24876   24879   24875   24873   24876   24877
   24875   24873   24876   24878   24875   24873   24876   24879
   24876   24879   24882   24883   24876   24879   24882   24884
   24876   24879   24882   24885   24877   24876   24879   24880
   24877   24876   24879   24881   24877   24876   24879   24882
   24878   24876   24879   24880   24878   24876   24879   24881
   24878   24876   24879   24882   24879   24882   24885   24886
   24879   24882   24885   24887   24879   24882   24885   24888
   24880   24879   24882   24883   24880   24879   24882   24884
   24880   24879   24882   24885   24881   24879   24882   24883
   24881   24879   24882   24884   24881   24879   24882   24885
   24882   24885   24888   24889   24882   24885   24888   24890
   24882   24885   24888   24891   24883   24882   24885   24886
   24883   24882   24885   24887   24883   24882   24885   24888
   24884   24882   24885   24886   24884   24882   24885   24887
   24884   24882   24885   24888   24885   24888   24891   24892
   24885   24888   24891   24893   24885   24888   24891   24894
   24886   24885   24888   24889   24886   24885   24888   24890
   24886   24885   24888   24891   24887   24885   24888   24889
   24887   24885   24888   24890   24887   24885   24888   24891
   24889   24888   24891   24892   24889   24888   24891   24893
   24889   24888   24891   24894   24890   24888   24891   24892
   24890   24888   24891   24893   24890   24888   24891   24894
   24895   24898   24901   24902   24895   24898   24901   24903
   24895   24898   24901   24904   24896   24895   24898   24899
   24896   24895   24898   24900   24896   24895   24898   24901
   24897   24895   24898   24899   24897   24895   24898   24900
   24897   24895   24898   24901   24898   24901   24904   24905
   24898   24901   24904   24906   24898   24901   24904   24907
   24899   24898   24901   24902   24899   24898   24901   24903
   24899   24898   24901   24904   24900   24898   24901   24902
   24900   24898   24901   24903   24900   24898   24901   24904
   24901   24904   24907   24908   24901   24904   24907   24909
   24901   24904   24907   24910   24902   24901   24904   24905
   24902   24901   24904   24906   24902   24901   24904   24907
   24903   24901   24904   24905   24903   24901   24904   24906
   24903   24901   24904   24907   24904   24907   24910   24911
   24904   24907   24910   24912   24904   24907   24910   24913
   24905   24904   24907   24908   24905   24904   24907   24909
   24905   24904   24907   24910   24906   24904   24907   24908
   24906   24904   24907   24909   24906   24904   24907   24910
   24907   24910   24913   24914   24907   24910   24913   24915
   24907   24910   24913   24916   24908   24907   24910   24911
   24908   24907   24910   24912   24908   24907   24910   24913
   24909   24907   24910   24911   24909   24907   24910   24912
   24909   24907   24910   24913   24910   24913   24916   24917
   24910   24913   24916   24918   24910   24913   24916   24919
   24911   24910   24913   24914   24911   24910   24913   24915
   24911   24910   24913   24916   24912   24910   24913   24914
   24912   24910   24913   24915   24912   24910   24913   24916
   24913   24916   24919   24920   24913   24916   24919   24921
   24913   24916   24919   24922   24914   24913   24916   24917
   24914   24913   24916   24918   24914   24913   24916   24919
   24915   24913   24916   24917   24915   24913   24916   24918
   24915   24913   24916   24919   24916   24919   24922   24923
   24916   24919   24922   24924   24916   24919   24922   24925
   24917   24916   24919   24920   24917   24916   24919   24921
   24917   24916   24919   24922   24918   24916   24919   24920
   24918   24916   24919   24921   24918   24916   24919   24922
   24919   24922   24925   24926   24919   24922   24925   24927
   24919   24922   24925   24928   24920   24919   24922   24923
   24920   24919   24922   24924   24920   24919   24922   24925
   24921   24919   24922   24923   24921   24919   24922   24924
   24921   24919   24922   24925   24922   24925   24928   24929
   24922   24925   24928   24930   24922   24925   24928   24931
   24923   24922   24925   24926   24923   24922   24925   24927
   24923   24922   24925   24928   24924   24922   24925   24926
   24924   24922   24925   24927   24924   24922   24925   24928
   24926   24925   24928   24929   24926   24925   24928   24930
   24926   24925   24928   24931   24927   24925   24928   24929
   24927   24925   24928   24930   24927   24925   24928   24931
   24932   24945   24948   24949   24932   24945   24948   24950
   24932   24945   24948   24955   24933   24932   24937   24938
   24933   24932   24937   24939   24933   24932   24937   24940
   24933   24932   24941   24942   24933   24932   24941   24943
   24933   24932   24941   24944   24933   24932   24945   24946
   24933   24932   24945   24947   24933   24932   24945   24948
   24937   24932   24933   24934   24937   24932   24933   24935
   24937   24932   24933   24936   24937   24932   24941   24942
   24937   24932   24941   24943   24937   24932   24941   24944
   24937   24932   24945   24946   24937   24932   24945   24947
   24937   24932   24945   24948   24941   24932   24933   24934
   24941   24932   24933   24935   24941   24932   24933   24936
   24941   24932   24937   24938   24941   24932   24937   24939
   24941   24932   24937   24940   24941   24932   24945   24946
   24941   24932   24945   24947   24941   24932   24945   24948
   24945   24932   24933   24934   24945   24932   24933   24935
   24945   24932   24933   24936   24945   24932   24937   24938
   24945   24932   24937   24939   24945   24932   24937   24940
   24945   24932   24941   24942   24945   24932   24941   24943
   24945   24932   24941   24944   24945   24948   24955   24951
   24946   24945   24948   24949   24946   24945   24948   24950
   24946   24945   24948   24955   24947   24945   24948   24949
   24947   24945   24948   24950   24947   24945   24948   24955
   24949   24948   24955   24951   24950   24948   24955   24951
   24951   24954   24956   24957   24951   24954   24956   24958
   24951   24954   24956   24959   24952   24951   24955   24948
   24952   24951   24954   24956   24953   24951   24955   24948
   24953   24951   24954   24956   24954   24951   24955   24948
   24954   24956   24959   24960   24954   24956   24959   24967
   24954   24956   24959   24961   24955   24951   24954   24956
   24956   24959   24967   24968   24956   24959   24967   24969
   24956   24959   24967   24970   24956   24959   24961   24962
   24957   24956   24959   24960   24957   24956   24959   24967
   24957   24956   24959   24961   24958   24956   24959   24960
   24958   24956   24959   24967   24958   24956   24959   24961
   24959   24967   24970   24971   24959   24961   24962   24964
   24959   24961   24962   24963   24960   24959   24967   24968
   24960   24959   24967   24969   24960   24959   24967   24970
   24960   24959   24961   24962   24961   24962   24964   24965
   24961   24962   24964   24966   24961   24962   24964   24976
   24961   24959   24967   24968   24961   24959   24967   24969
   24961   24959   24967   24970   24962   24964   24976   24977
   24962   24964   24976   24978   24962   24964   24976   24979
   24963   24962   24964   24965   24963   24962   24964   24966
   24963   24962   24964   24976   24964   24976   24979   24980
   24964   24976   24979   24981   24964   24976   24979   24982
   24965   24964   24976   24977   24965   24964   24976   24978
   24965   24964   24976   24979   24966   24964   24976   24977
   24966   24964   24976   24978   24966   24964   24976   24979
   24967   24959   24961   24962   24967   24970   24971   24973
   24967   24970   24971   24972   24968   24967   24970   24971
   24969   24967   24970   24971   24970   24971   24973   24974
   24970   24971   24973   24975   24970   24971   24973   25013
   24971   24973   25013   25014   24971   24973   25013   25015
   24971   24973   25013   25016   24972   24971   24973   24974
   24972   24971   24973   24975   24972   24971   24973   25013
   24973   25013   25016   25017   24973   25013   25016   25018
   24973   25013   25016   25019   24974   24973   25013   25014
   24974   24973   25013   25015   24974   24973   25013   25016
   24975   24973   25013   25014   24975   24973   25013   25015
   24975   24973   25013   25016   24976   24979   24982   24983
   24976   24979   24982   24984   24976   24979   24982   24985
   24977   24976   24979   24980   24977   24976   24979   24981
   24977   24976   24979   24982   24978   24976   24979   24980
   24978   24976   24979   24981   24978   24976   24979   24982
   24979   24982   24985   24986   24979   24982   24985   24987
   24979   24982   24985   24988   24980   24979   24982   24983
   24980   24979   24982   24984   24980   24979   24982   24985
   24981   24979   24982   24983   24981   24979   24982   24984
   24981   24979   24982   24985   24982   24985   24988   24989
   24982   24985   24988   24990   24982   24985   24988   24991
   24983   24982   24985   24986   24983   24982   24985   24987
   24983   24982   24985   24988   24984   24982   24985   24986
   24984   24982   24985   24987   24984   24982   24985   24988
   24985   24988   24991   24992   24985   24988   24991   24993
   24985   24988   24991   24994   24986   24985   24988   24989
   24986   24985   24988   24990   24986   24985   24988   24991
   24987   24985   24988   24989   24987   24985   24988   24990
   24987   24985   24988   24991   24988   24991   24994   24995
   24988   24991   24994   24996   24988   24991   24994   24997
   24989   24988   24991   24992   24989   24988   24991   24993
   24989   24988   24991   24994   24990   24988   24991   24992
   24990   24988   24991   24993   24990   24988   24991   24994
   24991   24994   24997   24998   24991   24994   24997   24999
   24991   24994   24997   25000   24992   24991   24994   24995
   24992   24991   24994   24996   24992   24991   24994   24997
   24993   24991   24994   24995   24993   24991   24994   24996
   24993   24991   24994   24997   24994   24997   25000   25001
   24994   24997   25000   25002   24994   24997   25000   25003
   24995   24994   24997   24998   24995   24994   24997   24999
   24995   24994   24997   25000   24996   24994   24997   24998
   24996   24994   24997   24999   24996   24994   24997   25000
   24997   25000   25003   25004   24997   25000   25003   25005
   24997   25000   25003   25006   24998   24997   25000   25001
   24998   24997   25000   25002   24998   24997   25000   25003
   24999   24997   25000   25001   24999   24997   25000   25002
   24999   24997   25000   25003   25000   25003   25006   25007
   25000   25003   25006   25008   25000   25003   25006   25009
   25001   25000   25003   25004   25001   25000   25003   25005
   25001   25000   25003   25006   25002   25000   25003   25004
   25002   25000   25003   25005   25002   25000   25003   25006
   25003   25006   25009   25010   25003   25006   25009   25011
   25003   25006   25009   25012   25004   25003   25006   25007
   25004   25003   25006   25008   25004   25003   25006   25009
   25005   25003   25006   25007   25005   25003   25006   25008
   25005   25003   25006   25009   25007   25006   25009   25010
   25007   25006   25009   25011   25007   25006   25009   25012
   25008   25006   25009   25010   25008   25006   25009   25011
   25008   25006   25009   25012   25013   25016   25019   25020
   25013   25016   25019   25021   25013   25016   25019   25022
   25014   25013   25016   25017   25014   25013   25016   25018
   25014   25013   25016   25019   25015   25013   25016   25017
   25015   25013   25016   25018   25015   25013   25016   25019
   25016   25019   25022   25023   25016   25019   25022   25024
   25016   25019   25022   25025   25017   25016   25019   25020
   25017   25016   25019   25021   25017   25016   25019   25022
   25018   25016   25019   25020   25018   25016   25019   25021
   25018   25016   25019   25022   25019   25022   25025   25026
   25019   25022   25025   25027   25019   25022   25025   25028
   25020   25019   25022   25023   25020   25019   25022   25024
   25020   25019   25022   25025   25021   25019   25022   25023
   25021   25019   25022   25024   25021   25019   25022   25025
   25022   25025   25028   25029   25022   25025   25028   25030
   25022   25025   25028   25031   25023   25022   25025   25026
   25023   25022   25025   25027   25023   25022   25025   25028
   25024   25022   25025   25026   25024   25022   25025   25027
   25024   25022   25025   25028   25025   25028   25031   25032
   25025   25028   25031   25033   25025   25028   25031   25034
   25026   25025   25028   25029   25026   25025   25028   25030
   25026   25025   25028   25031   25027   25025   25028   25029
   25027   25025   25028   25030   25027   25025   25028   25031
   25028   25031   25034   25035   25028   25031   25034   25036
   25028   25031   25034   25037   25029   25028   25031   25032
   25029   25028   25031   25033   25029   25028   25031   25034
   25030   25028   25031   25032   25030   25028   25031   25033
   25030   25028   25031   25034   25031   25034   25037   25038
   25031   25034   25037   25039   25031   25034   25037   25040
   25032   25031   25034   25035   25032   25031   25034   25036
   25032   25031   25034   25037   25033   25031   25034   25035
   25033   25031   25034   25036   25033   25031   25034   25037
   25034   25037   25040   25041   25034   25037   25040   25042
   25034   25037   25040   25043   25035   25034   25037   25038
   25035   25034   25037   25039   25035   25034   25037   25040
   25036   25034   25037   25038   25036   25034   25037   25039
   25036   25034   25037   25040   25037   25040   25043   25044
   25037   25040   25043   25045   25037   25040   25043   25046
   25038   25037   25040   25041   25038   25037   25040   25042
   25038   25037   25040   25043   25039   25037   25040   25041
   25039   25037   25040   25042   25039   25037   25040   25043
   25040   25043   25046   25047   25040   25043   25046   25048
   25040   25043   25046   25049   25041   25040   25043   25044
   25041   25040   25043   25045   25041   25040   25043   25046
   25042   25040   25043   25044   25042   25040   25043   25045
   25042   25040   25043   25046   25044   25043   25046   25047
   25044   25043   25046   25048   25044   25043   25046   25049
   25045   25043   25046   25047   25045   25043   25046   25048
   25045   25043   25046   25049   25050   25063   25066   25067
   25050   25063   25066   25068   25050   25063   25066   25073
   25051   25050   25055   25056   25051   25050   25055   25057
   25051   25050   25055   25058   25051   25050   25059   25060
   25051   25050   25059   25061   25051   25050   25059   25062
   25051   25050   25063   25064   25051   25050   25063   25065
   25051   25050   25063   25066   25055   25050   25051   25052
   25055   25050   25051   25053   25055   25050   25051   25054
   25055   25050   25059   25060   25055   25050   25059   25061
   25055   25050   25059   25062   25055   25050   25063   25064
   25055   25050   25063   25065   25055   25050   25063   25066
   25059   25050   25051   25052   25059   25050   25051   25053
   25059   25050   25051   25054   25059   25050   25055   25056
   25059   25050   25055   25057   25059   25050   25055   25058
   25059   25050   25063   25064   25059   25050   25063   25065
   25059   25050   25063   25066   25063   25050   25051   25052
   25063   25050   25051   25053   25063   25050   25051   25054
   25063   25050   25055   25056   25063   25050   25055   25057
   25063   25050   25055   25058   25063   25050   25059   25060
   25063   25050   25059   25061   25063   25050   25059   25062
   25063   25066   25073   25069   25064   25063   25066   25067
   25064   25063   25066   25068   25064   25063   25066   25073
   25065   25063   25066   25067   25065   25063   25066   25068
   25065   25063   25066   25073   25067   25066   25073   25069
   25068   25066   25073   25069   25069   25072   25074   25075
   25069   25072   25074   25076   25069   25072   25074   25077
   25070   25069   25073   25066   25070   25069   25072   25074
   25071   25069   25073   25066   25071   25069   25072   25074
   25072   25069   25073   25066   25072   25074   25077   25078
   25072   25074   25077   25085   25072   25074   25077   25079
   25073   25069   25072   25074   25074   25077   25085   25086
   25074   25077   25085   25087   25074   25077   25085   25088
   25074   25077   25079   25080   25075   25074   25077   25078
   25075   25074   25077   25085   25075   25074   25077   25079
   25076   25074   25077   25078   25076   25074   25077   25085
   25076   25074   25077   25079   25077   25085   25088   25089
   25077   25079   25080   25082   25077   25079   25080   25081
   25078   25077   25085   25086   25078   25077   25085   25087
   25078   25077   25085   25088   25078   25077   25079   25080
   25079   25080   25082   25083   25079   25080   25082   25084
   25079   25080   25082   25094   25079   25077   25085   25086
   25079   25077   25085   25087   25079   25077   25085   25088
   25080   25082   25094   25095   25080   25082   25094   25096
   25080   25082   25094   25097   25081   25080   25082   25083
   25081   25080   25082   25084   25081   25080   25082   25094
   25082   25094   25097   25098   25082   25094   25097   25099
   25082   25094   25097   25100   25083   25082   25094   25095
   25083   25082   25094   25096   25083   25082   25094   25097
   25084   25082   25094   25095   25084   25082   25094   25096
   25084   25082   25094   25097   25085   25077   25079   25080
   25085   25088   25089   25091   25085   25088   25089   25090
   25086   25085   25088   25089   25087   25085   25088   25089
   25088   25089   25091   25092   25088   25089   25091   25093
   25088   25089   25091   25131   25089   25091   25131   25132
   25089   25091   25131   25133   25089   25091   25131   25134
   25090   25089   25091   25092   25090   25089   25091   25093
   25090   25089   25091   25131   25091   25131   25134   25135
   25091   25131   25134   25136   25091   25131   25134   25137
   25092   25091   25131   25132   25092   25091   25131   25133
   25092   25091   25131   25134   25093   25091   25131   25132
   25093   25091   25131   25133   25093   25091   25131   25134
   25094   25097   25100   25101   25094   25097   25100   25102
   25094   25097   25100   25103   25095   25094   25097   25098
   25095   25094   25097   25099   25095   25094   25097   25100
   25096   25094   25097   25098   25096   25094   25097   25099
   25096   25094   25097   25100   25097   25100   25103   25104
   25097   25100   25103   25105   25097   25100   25103   25106
   25098   25097   25100   25101   25098   25097   25100   25102
   25098   25097   25100   25103   25099   25097   25100   25101
   25099   25097   25100   25102   25099   25097   25100   25103
   25100   25103   25106   25107   25100   25103   25106   25108
   25100   25103   25106   25109   25101   25100   25103   25104
   25101   25100   25103   25105   25101   25100   25103   25106
   25102   25100   25103   25104   25102   25100   25103   25105
   25102   25100   25103   25106   25103   25106   25109   25110
   25103   25106   25109   25111   25103   25106   25109   25112
   25104   25103   25106   25107   25104   25103   25106   25108
   25104   25103   25106   25109   25105   25103   25106   25107
   25105   25103   25106   25108   25105   25103   25106   25109
   25106   25109   25112   25113   25106   25109   25112   25114
   25106   25109   25112   25115   25107   25106   25109   25110
   25107   25106   25109   25111   25107   25106   25109   25112
   25108   25106   25109   25110   25108   25106   25109   25111
   25108   25106   25109   25112   25109   25112   25115   25116
   25109   25112   25115   25117   25109   25112   25115   25118
   25110   25109   25112   25113   25110   25109   25112   25114
   25110   25109   25112   25115   25111   25109   25112   25113
   25111   25109   25112   25114   25111   25109   25112   25115
   25112   25115   25118   25119   25112   25115   25118   25120
   25112   25115   25118   25121   25113   25112   25115   25116
   25113   25112   25115   25117   25113   25112   25115   25118
   25114   25112   25115   25116   25114   25112   25115   25117
   25114   25112   25115   25118   25115   25118   25121   25122
   25115   25118   25121   25123   25115   25118   25121   25124
   25116   25115   25118   25119   25116   25115   25118   25120
   25116   25115   25118   25121   25117   25115   25118   25119
   25117   25115   25118   25120   25117   25115   25118   25121
   25118   25121   25124   25125   25118   25121   25124   25126
   25118   25121   25124   25127   25119   25118   25121   25122
   25119   25118   25121   25123   25119   25118   25121   25124
   25120   25118   25121   25122   25120   25118   25121   25123
   25120   25118   25121   25124   25121   25124   25127   25128
   25121   25124   25127   25129   25121   25124   25127   25130
   25122   25121   25124   25125   25122   25121   25124   25126
   25122   25121   25124   25127   25123   25121   25124   25125
   25123   25121   25124   25126   25123   25121   25124   25127
   25125   25124   25127   25128   25125   25124   25127   25129
   25125   25124   25127   25130   25126   25124   25127   25128
   25126   25124   25127   25129   25126   25124   25127   25130
   25131   25134   25137   25138   25131   25134   25137   25139
   25131   25134   25137   25140   25132   25131   25134   25135
   25132   25131   25134   25136   25132   25131   25134   25137
   25133   25131   25134   25135   25133   25131   25134   25136
   25133   25131   25134   25137   25134   25137   25140   25141
   25134   25137   25140   25142   25134   25137   25140   25143
   25135   25134   25137   25138   25135   25134   25137   25139
   25135   25134   25137   25140   25136   25134   25137   25138
   25136   25134   25137   25139   25136   25134   25137   25140
   25137   25140   25143   25144   25137   25140   25143   25145
   25137   25140   25143   25146   25138   25137   25140   25141
   25138   25137   25140   25142   25138   25137   25140   25143
   25139   25137   25140   25141   25139   25137   25140   25142
   25139   25137   25140   25143   25140   25143   25146   25147
   25140   25143   25146   25148   25140   25143   25146   25149
   25141   25140   25143   25144   25141   25140   25143   25145
   25141   25140   25143   25146   25142   25140   25143   25144
   25142   25140   25143   25145   25142   25140   25143   25146
   25143   25146   25149   25150   25143   25146   25149   25151
   25143   25146   25149   25152   25144   25143   25146   25147
   25144   25143   25146   25148   25144   25143   25146   25149
   25145   25143   25146   25147   25145   25143   25146   25148
   25145   25143   25146   25149   25146   25149   25152   25153
   25146   25149   25152   25154   25146   25149   25152   25155
   25147   25146   25149   25150   25147   25146   25149   25151
   25147   25146   25149   25152   25148   25146   25149   25150
   25148   25146   25149   25151   25148   25146   25149   25152
   25149   25152   25155   25156   25149   25152   25155   25157
   25149   25152   25155   25158   25150   25149   25152   25153
   25150   25149   25152   25154   25150   25149   25152   25155
   25151   25149   25152   25153   25151   25149   25152   25154
   25151   25149   25152   25155   25152   25155   25158   25159
   25152   25155   25158   25160   25152   25155   25158   25161
   25153   25152   25155   25156   25153   25152   25155   25157
   25153   25152   25155   25158   25154   25152   25155   25156
   25154   25152   25155   25157   25154   25152   25155   25158
   25155   25158   25161   25162   25155   25158   25161   25163
   25155   25158   25161   25164   25156   25155   25158   25159
   25156   25155   25158   25160   25156   25155   25158   25161
   25157   25155   25158   25159   25157   25155   25158   25160
   25157   25155   25158   25161   25158   25161   25164   25165
   25158   25161   25164   25166   25158   25161   25164   25167
   25159   25158   25161   25162   25159   25158   25161   25163
   25159   25158   25161   25164   25160   25158   25161   25162
   25160   25158   25161   25163   25160   25158   25161   25164
   25162   25161   25164   25165   25162   25161   25164   25166
   25162   25161   25164   25167   25163   25161   25164   25165
   25163   25161   25164   25166   25163   25161   25164   25167
   25168   25181   25184   25185   25168   25181   25184   25186
   25168   25181   25184   25191   25169   25168   25173   25174
   25169   25168   25173   25175   25169   25168   25173   25176
   25169   25168   25177   25178   25169   25168   25177   25179
   25169   25168   25177   25180   25169   25168   25181   25182
   25169   25168   25181   25183   25169   25168   25181   25184
   25173   25168   25169   25170   25173   25168   25169   25171
   25173   25168   25169   25172   25173   25168   25177   25178
   25173   25168   25177   25179   25173   25168   25177   25180
   25173   25168   25181   25182   25173   25168   25181   25183
   25173   25168   25181   25184   25177   25168   25169   25170
   25177   25168   25169   25171   25177   25168   25169   25172
   25177   25168   25173   25174   25177   25168   25173   25175
   25177   25168   25173   25176   25177   25168   25181   25182
   25177   25168   25181   25183   25177   25168   25181   25184
   25181   25168   25169   25170   25181   25168   25169   25171
   25181   25168   25169   25172   25181   25168   25173   25174
   25181   25168   25173   25175   25181   25168   25173   25176
   25181   25168   25177   25178   25181   25168   25177   25179
   25181   25168   25177   25180   25181   25184   25191   25187
   25182   25181   25184   25185   25182   25181   25184   25186
   25182   25181   25184   25191   25183   25181   25184   25185
   25183   25181   25184   25186   25183   25181   25184   25191
   25185   25184   25191   25187   25186   25184   25191   25187
   25187   25190   25192   25193   25187   25190   25192   25194
   25187   25190   25192   25195   25188   25187   25191   25184
   25188   25187   25190   25192   25189   25187   25191   25184
   25189   25187   25190   25192   25190   25187   25191   25184
   25190   25192   25195   25196   25190   25192   25195   25203
   25190   25192   25195   25197   25191   25187   25190   25192
   25192   25195   25203   25204   25192   25195   25203   25205
   25192   25195   25203   25206   25192   25195   25197   25198
   25193   25192   25195   25196   25193   25192   25195   25203
   25193   25192   25195   25197   25194   25192   25195   25196
   25194   25192   25195   25203   25194   25192   25195   25197
   25195   25203   25206   25207   25195   25197   25198   25200
   25195   25197   25198   25199   25196   25195   25203   25204
   25196   25195   25203   25205   25196   25195   25203   25206
   25196   25195   25197   25198   25197   25198   25200   25201
   25197   25198   25200   25202   25197   25198   25200   25212
   25197   25195   25203   25204   25197   25195   25203   25205
   25197   25195   25203   25206   25198   25200   25212   25213
   25198   25200   25212   25214   25198   25200   25212   25215
   25199   25198   25200   25201   25199   25198   25200   25202
   25199   25198   25200   25212   25200   25212   25215   25216
   25200   25212   25215   25217   25200   25212   25215   25218
   25201   25200   25212   25213   25201   25200   25212   25214
   25201   25200   25212   25215   25202   25200   25212   25213
   25202   25200   25212   25214   25202   25200   25212   25215
   25203   25195   25197   25198   25203   25206   25207   25209
   25203   25206   25207   25208   25204   25203   25206   25207
   25205   25203   25206   25207   25206   25207   25209   25210
   25206   25207   25209   25211   25206   25207   25209   25249
   25207   25209   25249   25250   25207   25209   25249   25251
   25207   25209   25249   25252   25208   25207   25209   25210
   25208   25207   25209   25211   25208   25207   25209   25249
   25209   25249   25252   25253   25209   25249   25252   25254
   25209   25249   25252   25255   25210   25209   25249   25250
   25210   25209   25249   25251   25210   25209   25249   25252
   25211   25209   25249   25250   25211   25209   25249   25251
   25211   25209   25249   25252   25212   25215   25218   25219
   25212   25215   25218   25220   25212   25215   25218   25221
   25213   25212   25215   25216   25213   25212   25215   25217
   25213   25212   25215   25218   25214   25212   25215   25216
   25214   25212   25215   25217   25214   25212   25215   25218
   25215   25218   25221   25222   25215   25218   25221   25223
   25215   25218   25221   25224   25216   25215   25218   25219
   25216   25215   25218   25220   25216   25215   25218   25221
   25217   25215   25218   25219   25217   25215   25218   25220
   25217   25215   25218   25221   25218   25221   25224   25225
   25218   25221   25224   25226   25218   25221   25224   25227
   25219   25218   25221   25222   25219   25218   25221   25223
   25219   25218   25221   25224   25220   25218   25221   25222
   25220   25218   25221   25223   25220   25218   25221   25224
   25221   25224   25227   25228   25221   25224   25227   25229
   25221   25224   25227   25230   25222   25221   25224   25225
   25222   25221   25224   25226   25222   25221   25224   25227
   25223   25221   25224   25225   25223   25221   25224   25226
   25223   25221   25224   25227   25224   25227   25230   25231
   25224   25227   25230   25232   25224   25227   25230   25233
   25225   25224   25227   25228   25225   25224   25227   25229
   25225   25224   25227   25230   25226   25224   25227   25228
   25226   25224   25227   25229   25226   25224   25227   25230
   25227   25230   25233   25234   25227   25230   25233   25235
   25227   25230   25233   25236   25228   25227   25230   25231
   25228   25227   25230   25232   25228   25227   25230   25233
   25229   25227   25230   25231   25229   25227   25230   25232
   25229   25227   25230   25233   25230   25233   25236   25237
   25230   25233   25236   25238   25230   25233   25236   25239
   25231   25230   25233   25234   25231   25230   25233   25235
   25231   25230   25233   25236   25232   25230   25233   25234
   25232   25230   25233   25235   25232   25230   25233   25236
   25233   25236   25239   25240   25233   25236   25239   25241
   25233   25236   25239   25242   25234   25233   25236   25237
   25234   25233   25236   25238   25234   25233   25236   25239
   25235   25233   25236   25237   25235   25233   25236   25238
   25235   25233   25236   25239   25236   25239   25242   25243
   25236   25239   25242   25244   25236   25239   25242   25245
   25237   25236   25239   25240   25237   25236   25239   25241
   25237   25236   25239   25242   25238   25236   25239   25240
   25238   25236   25239   25241   25238   25236   25239   25242
   25239   25242   25245   25246   25239   25242   25245   25247
   25239   25242   25245   25248   25240   25239   25242   25243
   25240   25239   25242   25244   25240   25239   25242   25245
   25241   25239   25242   25243   25241   25239   25242   25244
   25241   25239   25242   25245   25243   25242   25245   25246
   25243   25242   25245   25247   25243   25242   25245   25248
   25244   25242   25245   25246   25244   25242   25245   25247
   25244   25242   25245   25248   25249   25252   25255   25256
   25249   25252   25255   25257   25249   25252   25255   25258
   25250   25249   25252   25253   25250   25249   25252   25254
   25250   25249   25252   25255   25251   25249   25252   25253
   25251   25249   25252   25254   25251   25249   25252   25255
   25252   25255   25258   25259   25252   25255   25258   25260
   25252   25255   25258   25261   25253   25252   25255   25256
   25253   25252   25255   25257   25253   25252   25255   25258
   25254   25252   25255   25256   25254   25252   25255   25257
   25254   25252   25255   25258   25255   25258   25261   25262
   25255   25258   25261   25263   25255   25258   25261   25264
   25256   25255   25258   25259   25256   25255   25258   25260
   25256   25255   25258   25261   25257   25255   25258   25259
   25257   25255   25258   25260   25257   25255   25258   25261
   25258   25261   25264   25265   25258   25261   25264   25266
   25258   25261   25264   25267   25259   25258   25261   25262
   25259   25258   25261   25263   25259   25258   25261   25264
   25260   25258   25261   25262   25260   25258   25261   25263
   25260   25258   25261   25264   25261   25264   25267   25268
   25261   25264   25267   25269   25261   25264   25267   25270
   25262   25261   25264   25265   25262   25261   25264   25266
   25262   25261   25264   25267   25263   25261   25264   25265
   25263   25261   25264   25266   25263   25261   25264   25267
   25264   25267   25270   25271   25264   25267   25270   25272
   25264   25267   25270   25273   25265   25264   25267   25268
   25265   25264   25267   25269   25265   25264   25267   25270
   25266   25264   25267   25268   25266   25264   25267   25269
   25266   25264   25267   25270   25267   25270   25273   25274
   25267   25270   25273   25275   25267   25270   25273   25276
   25268   25267   25270   25271   25268   25267   25270   25272
   25268   25267   25270   25273   25269   25267   25270   25271
   25269   25267   25270   25272   25269   25267   25270   25273
   25270   25273   25276   25277   25270   25273   25276   25278
   25270   25273   25276   25279   25271   25270   25273   25274
   25271   25270   25273   25275   25271   25270   25273   25276
   25272   25270   25273   25274   25272   25270   25273   25275
   25272   25270   25273   25276   25273   25276   25279   25280
   25273   25276   25279   25281   25273   25276   25279   25282
   25274   25273   25276   25277   25274   25273   25276   25278
   25274   25273   25276   25279   25275   25273   25276   25277
   25275   25273   25276   25278   25275   25273   25276   25279
   25276   25279   25282   25283   25276   25279   25282   25284
   25276   25279   25282   25285   25277   25276   25279   25280
   25277   25276   25279   25281   25277   25276   25279   25282
   25278   25276   25279   25280   25278   25276   25279   25281
   25278   25276   25279   25282   25280   25279   25282   25283
   25280   25279   25282   25284   25280   25279   25282   25285
   25281   25279   25282   25283   25281   25279   25282   25284
   25281   25279   25282   25285   25286   25299   25302   25303
   25286   25299   25302   25304   25286   25299   25302   25309
   25287   25286   25291   25292   25287   25286   25291   25293
   25287   25286   25291   25294   25287   25286   25295   25296
   25287   25286   25295   25297   25287   25286   25295   25298
   25287   25286   25299   25300   25287   25286   25299   25301
   25287   25286   25299   25302   25291   25286   25287   25288
   25291   25286   25287   25289   25291   25286   25287   25290
   25291   25286   25295   25296   25291   25286   25295   25297
   25291   25286   25295   25298   25291   25286   25299   25300
   25291   25286   25299   25301   25291   25286   25299   25302
   25295   25286   25287   25288   25295   25286   25287   25289
   25295   25286   25287   25290   25295   25286   25291   25292
   25295   25286   25291   25293   25295   25286   25291   25294
   25295   25286   25299   25300   25295   25286   25299   25301
   25295   25286   25299   25302   25299   25286   25287   25288
   25299   25286   25287   25289   25299   25286   25287   25290
   25299   25286   25291   25292   25299   25286   25291   25293
   25299   25286   25291   25294   25299   25286   25295   25296
   25299   25286   25295   25297   25299   25286   25295   25298
   25299   25302   25309   25305   25300   25299   25302   25303
   25300   25299   25302   25304   25300   25299   25302   25309
   25301   25299   25302   25303   25301   25299   25302   25304
   25301   25299   25302   25309   25303   25302   25309   25305
   25304   25302   25309   25305   25305   25308   25310   25311
   25305   25308   25310   25312   25305   25308   25310   25313
   25306   25305   25309   25302   25306   25305   25308   25310
   25307   25305   25309   25302   25307   25305   25308   25310
   25308   25305   25309   25302   25308   25310   25313   25314
   25308   25310   25313   25321   25308   25310   25313   25315
   25309   25305   25308   25310   25310   25313   25321   25322
   25310   25313   25321   25323   25310   25313   25321   25324
   25310   25313   25315   25316   25311   25310   25313   25314
   25311   25310   25313   25321   25311   25310   25313   25315
   25312   25310   25313   25314   25312   25310   25313   25321
   25312   25310   25313   25315   25313   25321   25324   25325
   25313   25315   25316   25318   25313   25315   25316   25317
   25314   25313   25321   25322   25314   25313   25321   25323
   25314   25313   25321   25324   25314   25313   25315   25316
   25315   25316   25318   25319   25315   25316   25318   25320
   25315   25316   25318   25330   25315   25313   25321   25322
   25315   25313   25321   25323   25315   25313   25321   25324
   25316   25318   25330   25331   25316   25318   25330   25332
   25316   25318   25330   25333   25317   25316   25318   25319
   25317   25316   25318   25320   25317   25316   25318   25330
   25318   25330   25333   25334   25318   25330   25333   25335
   25318   25330   25333   25336   25319   25318   25330   25331
   25319   25318   25330   25332   25319   25318   25330   25333
   25320   25318   25330   25331   25320   25318   25330   25332
   25320   25318   25330   25333   25321   25313   25315   25316
   25321   25324   25325   25327   25321   25324   25325   25326
   25322   25321   25324   25325   25323   25321   25324   25325
   25324   25325   25327   25328   25324   25325   25327   25329
   25324   25325   25327   25367   25325   25327   25367   25368
   25325   25327   25367   25369   25325   25327   25367   25370
   25326   25325   25327   25328   25326   25325   25327   25329
   25326   25325   25327   25367   25327   25367   25370   25371
   25327   25367   25370   25372   25327   25367   25370   25373
   25328   25327   25367   25368   25328   25327   25367   25369
   25328   25327   25367   25370   25329   25327   25367   25368
   25329   25327   25367   25369   25329   25327   25367   25370
   25330   25333   25336   25337   25330   25333   25336   25338
   25330   25333   25336   25339   25331   25330   25333   25334
   25331   25330   25333   25335   25331   25330   25333   25336
   25332   25330   25333   25334   25332   25330   25333   25335
   25332   25330   25333   25336   25333   25336   25339   25340
   25333   25336   25339   25341   25333   25336   25339   25342
   25334   25333   25336   25337   25334   25333   25336   25338
   25334   25333   25336   25339   25335   25333   25336   25337
   25335   25333   25336   25338   25335   25333   25336   25339
   25336   25339   25342   25343   25336   25339   25342   25344
   25336   25339   25342   25345   25337   25336   25339   25340
   25337   25336   25339   25341   25337   25336   25339   25342
   25338   25336   25339   25340   25338   25336   25339   25341
   25338   25336   25339   25342   25339   25342   25345   25346
   25339   25342   25345   25347   25339   25342   25345   25348
   25340   25339   25342   25343   25340   25339   25342   25344
   25340   25339   25342   25345   25341   25339   25342   25343
   25341   25339   25342   25344   25341   25339   25342   25345
   25342   25345   25348   25349   25342   25345   25348   25350
   25342   25345   25348   25351   25343   25342   25345   25346
   25343   25342   25345   25347   25343   25342   25345   25348
   25344   25342   25345   25346   25344   25342   25345   25347
   25344   25342   25345   25348   25345   25348   25351   25352
   25345   25348   25351   25353   25345   25348   25351   25354
   25346   25345   25348   25349   25346   25345   25348   25350
   25346   25345   25348   25351   25347   25345   25348   25349
   25347   25345   25348   25350   25347   25345   25348   25351
   25348   25351   25354   25355   25348   25351   25354   25356
   25348   25351   25354   25357   25349   25348   25351   25352
   25349   25348   25351   25353   25349   25348   25351   25354
   25350   25348   25351   25352   25350   25348   25351   25353
   25350   25348   25351   25354   25351   25354   25357   25358
   25351   25354   25357   25359   25351   25354   25357   25360
   25352   25351   25354   25355   25352   25351   25354   25356
   25352   25351   25354   25357   25353   25351   25354   25355
   25353   25351   25354   25356   25353   25351   25354   25357
   25354   25357   25360   25361   25354   25357   25360   25362
   25354   25357   25360   25363   25355   25354   25357   25358
   25355   25354   25357   25359   25355   25354   25357   25360
   25356   25354   25357   25358   25356   25354   25357   25359
   25356   25354   25357   25360   25357   25360   25363   25364
   25357   25360   25363   25365   25357   25360   25363   25366
   25358   25357   25360   25361   25358   25357   25360   25362
   25358   25357   25360   25363   25359   25357   25360   25361
   25359   25357   25360   25362   25359   25357   25360   25363
   25361   25360   25363   25364   25361   25360   25363   25365
   25361   25360   25363   25366   25362   25360   25363   25364
   25362   25360   25363   25365   25362   25360   25363   25366
   25367   25370   25373   25374   25367   25370   25373   25375
   25367   25370   25373   25376   25368   25367   25370   25371
   25368   25367   25370   25372   25368   25367   25370   25373
   25369   25367   25370   25371   25369   25367   25370   25372
   25369   25367   25370   25373   25370   25373   25376   25377
   25370   25373   25376   25378   25370   25373   25376   25379
   25371   25370   25373   25374   25371   25370   25373   25375
   25371   25370   25373   25376   25372   25370   25373   25374
   25372   25370   25373   25375   25372   25370   25373   25376
   25373   25376   25379   25380   25373   25376   25379   25381
   25373   25376   25379   25382   25374   25373   25376   25377
   25374   25373   25376   25378   25374   25373   25376   25379
   25375   25373   25376   25377   25375   25373   25376   25378
   25375   25373   25376   25379   25376   25379   25382   25383
   25376   25379   25382   25384   25376   25379   25382   25385
   25377   25376   25379   25380   25377   25376   25379   25381
   25377   25376   25379   25382   25378   25376   25379   25380
   25378   25376   25379   25381   25378   25376   25379   25382
   25379   25382   25385   25386   25379   25382   25385   25387
   25379   25382   25385   25388   25380   25379   25382   25383
   25380   25379   25382   25384   25380   25379   25382   25385
   25381   25379   25382   25383   25381   25379   25382   25384
   25381   25379   25382   25385   25382   25385   25388   25389
   25382   25385   25388   25390   25382   25385   25388   25391
   25383   25382   25385   25386   25383   25382   25385   25387
   25383   25382   25385   25388   25384   25382   25385   25386
   25384   25382   25385   25387   25384   25382   25385   25388
   25385   25388   25391   25392   25385   25388   25391   25393
   25385   25388   25391   25394   25386   25385   25388   25389
   25386   25385   25388   25390   25386   25385   25388   25391
   25387   25385   25388   25389   25387   25385   25388   25390
   25387   25385   25388   25391   25388   25391   25394   25395
   25388   25391   25394   25396   25388   25391   25394   25397
   25389   25388   25391   25392   25389   25388   25391   25393
   25389   25388   25391   25394   25390   25388   25391   25392
   25390   25388   25391   25393   25390   25388   25391   25394
   25391   25394   25397   25398   25391   25394   25397   25399
   25391   25394   25397   25400   25392   25391   25394   25395
   25392   25391   25394   25396   25392   25391   25394   25397
   25393   25391   25394   25395   25393   25391   25394   25396
   25393   25391   25394   25397   25394   25397   25400   25401
   25394   25397   25400   25402   25394   25397   25400   25403
   25395   25394   25397   25398   25395   25394   25397   25399
   25395   25394   25397   25400   25396   25394   25397   25398
   25396   25394   25397   25399   25396   25394   25397   25400
   25398   25397   25400   25401   25398   25397   25400   25402
   25398   25397   25400   25403   25399   25397   25400   25401
   25399   25397   25400   25402   25399   25397   25400   25403
   25404   25417   25420   25421   25404   25417   25420   25422
   25404   25417   25420   25427   25405   25404   25409   25410
   25405   25404   25409   25411   25405   25404   25409   25412
   25405   25404   25413   25414   25405   25404   25413   25415
   25405   25404   25413   25416   25405   25404   25417   25418
   25405   25404   25417   25419   25405   25404   25417   25420
   25409   25404   25405   25406   25409   25404   25405   25407
   25409   25404   25405   25408   25409   25404   25413   25414
   25409   25404   25413   25415   25409   25404   25413   25416
   25409   25404   25417   25418   25409   25404   25417   25419
   25409   25404   25417   25420   25413   25404   25405   25406
   25413   25404   25405   25407   25413   25404   25405   25408
   25413   25404   25409   25410   25413   25404   25409   25411
   25413   25404   25409   25412   25413   25404   25417   25418
   25413   25404   25417   25419   25413   25404   25417   25420
   25417   25404   25405   25406   25417   25404   25405   25407
   25417   25404   25405   25408   25417   25404   25409   25410
   25417   25404   25409   25411   25417   25404   25409   25412
   25417   25404   25413   25414   25417   25404   25413   25415
   25417   25404   25413   25416   25417   25420   25427   25423
   25418   25417   25420   25421   25418   25417   25420   25422
   25418   25417   25420   25427   25419   25417   25420   25421
   25419   25417   25420   25422   25419   25417   25420   25427
   25421   25420   25427   25423   25422   25420   25427   25423
   25423   25426   25428   25429   25423   25426   25428   25430
   25423   25426   25428   25431   25424   25423   25427   25420
   25424   25423   25426   25428   25425   25423   25427   25420
   25425   25423   25426   25428   25426   25423   25427   25420
   25426   25428   25431   25432   25426   25428   25431   25439
   25426   25428   25431   25433   25427   25423   25426   25428
   25428   25431   25439   25440   25428   25431   25439   25441
   25428   25431   25439   25442   25428   25431   25433   25434
   25429   25428   25431   25432   25429   25428   25431   25439
   25429   25428   25431   25433   25430   25428   25431   25432
   25430   25428   25431   25439   25430   25428   25431   25433
   25431   25439   25442   25443   25431   25433   25434   25436
   25431   25433   25434   25435   25432   25431   25439   25440
   25432   25431   25439   25441   25432   25431   25439   25442
   25432   25431   25433   25434   25433   25434   25436   25437
   25433   25434   25436   25438   25433   25434   25436   25448
   25433   25431   25439   25440   25433   25431   25439   25441
   25433   25431   25439   25442   25434   25436   25448   25449
   25434   25436   25448   25450   25434   25436   25448   25451
   25435   25434   25436   25437   25435   25434   25436   25438
   25435   25434   25436   25448   25436   25448   25451   25452
   25436   25448   25451   25453   25436   25448   25451   25454
   25437   25436   25448   25449   25437   25436   25448   25450
   25437   25436   25448   25451   25438   25436   25448   25449
   25438   25436   25448   25450   25438   25436   25448   25451
   25439   25431   25433   25434   25439   25442   25443   25445
   25439   25442   25443   25444   25440   25439   25442   25443
   25441   25439   25442   25443   25442   25443   25445   25446
   25442   25443   25445   25447   25442   25443   25445   25485
   25443   25445   25485   25486   25443   25445   25485   25487
   25443   25445   25485   25488   25444   25443   25445   25446
   25444   25443   25445   25447   25444   25443   25445   25485
   25445   25485   25488   25489   25445   25485   25488   25490
   25445   25485   25488   25491   25446   25445   25485   25486
   25446   25445   25485   25487   25446   25445   25485   25488
   25447   25445   25485   25486   25447   25445   25485   25487
   25447   25445   25485   25488   25448   25451   25454   25455
   25448   25451   25454   25456   25448   25451   25454   25457
   25449   25448   25451   25452   25449   25448   25451   25453
   25449   25448   25451   25454   25450   25448   25451   25452
   25450   25448   25451   25453   25450   25448   25451   25454
   25451   25454   25457   25458   25451   25454   25457   25459
   25451   25454   25457   25460   25452   25451   25454   25455
   25452   25451   25454   25456   25452   25451   25454   25457
   25453   25451   25454   25455   25453   25451   25454   25456
   25453   25451   25454   25457   25454   25457   25460   25461
   25454   25457   25460   25462   25454   25457   25460   25463
   25455   25454   25457   25458   25455   25454   25457   25459
   25455   25454   25457   25460   25456   25454   25457   25458
   25456   25454   25457   25459   25456   25454   25457   25460
   25457   25460   25463   25464   25457   25460   25463   25465
   25457   25460   25463   25466   25458   25457   25460   25461
   25458   25457   25460   25462   25458   25457   25460   25463
   25459   25457   25460   25461   25459   25457   25460   25462
   25459   25457   25460   25463   25460   25463   25466   25467
   25460   25463   25466   25468   25460   25463   25466   25469
   25461   25460   25463   25464   25461   25460   25463   25465
   25461   25460   25463   25466   25462   25460   25463   25464
   25462   25460   25463   25465   25462   25460   25463   25466
   25463   25466   25469   25470   25463   25466   25469   25471
   25463   25466   25469   25472   25464   25463   25466   25467
   25464   25463   25466   25468   25464   25463   25466   25469
   25465   25463   25466   25467   25465   25463   25466   25468
   25465   25463   25466   25469   25466   25469   25472   25473
   25466   25469   25472   25474   25466   25469   25472   25475
   25467   25466   25469   25470   25467   25466   25469   25471
   25467   25466   25469   25472   25468   25466   25469   25470
   25468   25466   25469   25471   25468   25466   25469   25472
   25469   25472   25475   25476   25469   25472   25475   25477
   25469   25472   25475   25478   25470   25469   25472   25473
   25470   25469   25472   25474   25470   25469   25472   25475
   25471   25469   25472   25473   25471   25469   25472   25474
   25471   25469   25472   25475   25472   25475   25478   25479
   25472   25475   25478   25480   25472   25475   25478   25481
   25473   25472   25475   25476   25473   25472   25475   25477
   25473   25472   25475   25478   25474   25472   25475   25476
   25474   25472   25475   25477   25474   25472   25475   25478
   25475   25478   25481   25482   25475   25478   25481   25483
   25475   25478   25481   25484   25476   25475   25478   25479
   25476   25475   25478   25480   25476   25475   25478   25481
   25477   25475   25478   25479   25477   25475   25478   25480
   25477   25475   25478   25481   25479   25478   25481   25482
   25479   25478   25481   25483   25479   25478   25481   25484
   25480   25478   25481   25482   25480   25478   25481   25483
   25480   25478   25481   25484   25485   25488   25491   25492
   25485   25488   25491   25493   25485   25488   25491   25494
   25486   25485   25488   25489   25486   25485   25488   25490
   25486   25485   25488   25491   25487   25485   25488   25489
   25487   25485   25488   25490   25487   25485   25488   25491
   25488   25491   25494   25495   25488   25491   25494   25496
   25488   25491   25494   25497   25489   25488   25491   25492
   25489   25488   25491   25493   25489   25488   25491   25494
   25490   25488   25491   25492   25490   25488   25491   25493
   25490   25488   25491   25494   25491   25494   25497   25498
   25491   25494   25497   25499   25491   25494   25497   25500
   25492   25491   25494   25495   25492   25491   25494   25496
   25492   25491   25494   25497   25493   25491   25494   25495
   25493   25491   25494   25496   25493   25491   25494   25497
   25494   25497   25500   25501   25494   25497   25500   25502
   25494   25497   25500   25503   25495   25494   25497   25498
   25495   25494   25497   25499   25495   25494   25497   25500
   25496   25494   25497   25498   25496   25494   25497   25499
   25496   25494   25497   25500   25497   25500   25503   25504
   25497   25500   25503   25505   25497   25500   25503   25506
   25498   25497   25500   25501   25498   25497   25500   25502
   25498   25497   25500   25503   25499   25497   25500   25501
   25499   25497   25500   25502   25499   25497   25500   25503
   25500   25503   25506   25507   25500   25503   25506   25508
   25500   25503   25506   25509   25501   25500   25503   25504
   25501   25500   25503   25505   25501   25500   25503   25506
   25502   25500   25503   25504   25502   25500   25503   25505
   25502   25500   25503   25506   25503   25506   25509   25510
   25503   25506   25509   25511   25503   25506   25509   25512
   25504   25503   25506   25507   25504   25503   25506   25508
   25504   25503   25506   25509   25505   25503   25506   25507
   25505   25503   25506   25508   25505   25503   25506   25509
   25506   25509   25512   25513   25506   25509   25512   25514
   25506   25509   25512   25515   25507   25506   25509   25510
   25507   25506   25509   25511   25507   25506   25509   25512
   25508   25506   25509   25510   25508   25506   25509   25511
   25508   25506   25509   25512   25509   25512   25515   25516
   25509   25512   25515   25517   25509   25512   25515   25518
   25510   25509   25512   25513   25510   25509   25512   25514
   25510   25509   25512   25515   25511   25509   25512   25513
   25511   25509   25512   25514   25511   25509   25512   25515
   25512   25515   25518   25519   25512   25515   25518   25520
   25512   25515   25518   25521   25513   25512   25515   25516
   25513   25512   25515   25517   25513   25512   25515   25518
   25514   25512   25515   25516   25514   25512   25515   25517
   25514   25512   25515   25518   25516   25515   25518   25519
   25516   25515   25518   25520   25516   25515   25518   25521
   25517   25515   25518   25519   25517   25515   25518   25520
   25517   25515   25518   25521   25522   25535   25538   25539
   25522   25535   25538   25540   25522   25535   25538   25545
   25523   25522   25527   25528   25523   25522   25527   25529
   25523   25522   25527   25530   25523   25522   25531   25532
   25523   25522   25531   25533   25523   25522   25531   25534
   25523   25522   25535   25536   25523   25522   25535   25537
   25523   25522   25535   25538   25527   25522   25523   25524
   25527   25522   25523   25525   25527   25522   25523   25526
   25527   25522   25531   25532   25527   25522   25531   25533
   25527   25522   25531   25534   25527   25522   25535   25536
   25527   25522   25535   25537   25527   25522   25535   25538
   25531   25522   25523   25524   25531   25522   25523   25525
   25531   25522   25523   25526   25531   25522   25527   25528
   25531   25522   25527   25529   25531   25522   25527   25530
   25531   25522   25535   25536   25531   25522   25535   25537
   25531   25522   25535   25538   25535   25522   25523   25524
   25535   25522   25523   25525   25535   25522   25523   25526
   25535   25522   25527   25528   25535   25522   25527   25529
   25535   25522   25527   25530   25535   25522   25531   25532
   25535   25522   25531   25533   25535   25522   25531   25534
   25535   25538   25545   25541   25536   25535   25538   25539
   25536   25535   25538   25540   25536   25535   25538   25545
   25537   25535   25538   25539   25537   25535   25538   25540
   25537   25535   25538   25545   25539   25538   25545   25541
   25540   25538   25545   25541   25541   25544   25546   25547
   25541   25544   25546   25548   25541   25544   25546   25549
   25542   25541   25545   25538   25542   25541   25544   25546
   25543   25541   25545   25538   25543   25541   25544   25546
   25544   25541   25545   25538   25544   25546   25549   25550
   25544   25546   25549   25557   25544   25546   25549   25551
   25545   25541   25544   25546   25546   25549   25557   25558
   25546   25549   25557   25559   25546   25549   25557   25560
   25546   25549   25551   25552   25547   25546   25549   25550
   25547   25546   25549   25557   25547   25546   25549   25551
   25548   25546   25549   25550   25548   25546   25549   25557
   25548   25546   25549   25551   25549   25557   25560   25561
   25549   25551   25552   25554   25549   25551   25552   25553
   25550   25549   25557   25558   25550   25549   25557   25559
   25550   25549   25557   25560   25550   25549   25551   25552
   25551   25552   25554   25555   25551   25552   25554   25556
   25551   25552   25554   25566   25551   25549   25557   25558
   25551   25549   25557   25559   25551   25549   25557   25560
   25552   25554   25566   25567   25552   25554   25566   25568
   25552   25554   25566   25569   25553   25552   25554   25555
   25553   25552   25554   25556   25553   25552   25554   25566
   25554   25566   25569   25570   25554   25566   25569   25571
   25554   25566   25569   25572   25555   25554   25566   25567
   25555   25554   25566   25568   25555   25554   25566   25569
   25556   25554   25566   25567   25556   25554   25566   25568
   25556   25554   25566   25569   25557   25549   25551   25552
   25557   25560   25561   25563   25557   25560   25561   25562
   25558   25557   25560   25561   25559   25557   25560   25561
   25560   25561   25563   25564   25560   25561   25563   25565
   25560   25561   25563   25603   25561   25563   25603   25604
   25561   25563   25603   25605   25561   25563   25603   25606
   25562   25561   25563   25564   25562   25561   25563   25565
   25562   25561   25563   25603   25563   25603   25606   25607
   25563   25603   25606   25608   25563   25603   25606   25609
   25564   25563   25603   25604   25564   25563   25603   25605
   25564   25563   25603   25606   25565   25563   25603   25604
   25565   25563   25603   25605   25565   25563   25603   25606
   25566   25569   25572   25573   25566   25569   25572   25574
   25566   25569   25572   25575   25567   25566   25569   25570
   25567   25566   25569   25571   25567   25566   25569   25572
   25568   25566   25569   25570   25568   25566   25569   25571
   25568   25566   25569   25572   25569   25572   25575   25576
   25569   25572   25575   25577   25569   25572   25575   25578
   25570   25569   25572   25573   25570   25569   25572   25574
   25570   25569   25572   25575   25571   25569   25572   25573
   25571   25569   25572   25574   25571   25569   25572   25575
   25572   25575   25578   25579   25572   25575   25578   25580
   25572   25575   25578   25581   25573   25572   25575   25576
   25573   25572   25575   25577   25573   25572   25575   25578
   25574   25572   25575   25576   25574   25572   25575   25577
   25574   25572   25575   25578   25575   25578   25581   25582
   25575   25578   25581   25583   25575   25578   25581   25584
   25576   25575   25578   25579   25576   25575   25578   25580
   25576   25575   25578   25581   25577   25575   25578   25579
   25577   25575   25578   25580   25577   25575   25578   25581
   25578   25581   25584   25585   25578   25581   25584   25586
   25578   25581   25584   25587   25579   25578   25581   25582
   25579   25578   25581   25583   25579   25578   25581   25584
   25580   25578   25581   25582   25580   25578   25581   25583
   25580   25578   25581   25584   25581   25584   25587   25588
   25581   25584   25587   25589   25581   25584   25587   25590
   25582   25581   25584   25585   25582   25581   25584   25586
   25582   25581   25584   25587   25583   25581   25584   25585
   25583   25581   25584   25586   25583   25581   25584   25587
   25584   25587   25590   25591   25584   25587   25590   25592
   25584   25587   25590   25593   25585   25584   25587   25588
   25585   25584   25587   25589   25585   25584   25587   25590
   25586   25584   25587   25588   25586   25584   25587   25589
   25586   25584   25587   25590   25587   25590   25593   25594
   25587   25590   25593   25595   25587   25590   25593   25596
   25588   25587   25590   25591   25588   25587   25590   25592
   25588   25587   25590   25593   25589   25587   25590   25591
   25589   25587   25590   25592   25589   25587   25590   25593
   25590   25593   25596   25597   25590   25593   25596   25598
   25590   25593   25596   25599   25591   25590   25593   25594
   25591   25590   25593   25595   25591   25590   25593   25596
   25592   25590   25593   25594   25592   25590   25593   25595
   25592   25590   25593   25596   25593   25596   25599   25600
   25593   25596   25599   25601   25593   25596   25599   25602
   25594   25593   25596   25597   25594   25593   25596   25598
   25594   25593   25596   25599   25595   25593   25596   25597
   25595   25593   25596   25598   25595   25593   25596   25599
   25597   25596   25599   25600   25597   25596   25599   25601
   25597   25596   25599   25602   25598   25596   25599   25600
   25598   25596   25599   25601   25598   25596   25599   25602
   25603   25606   25609   25610   25603   25606   25609   25611
   25603   25606   25609   25612   25604   25603   25606   25607
   25604   25603   25606   25608   25604   25603   25606   25609
   25605   25603   25606   25607   25605   25603   25606   25608
   25605   25603   25606   25609   25606   25609   25612   25613
   25606   25609   25612   25614   25606   25609   25612   25615
   25607   25606   25609   25610   25607   25606   25609   25611
   25607   25606   25609   25612   25608   25606   25609   25610
   25608   25606   25609   25611   25608   25606   25609   25612
   25609   25612   25615   25616   25609   25612   25615   25617
   25609   25612   25615   25618   25610   25609   25612   25613
   25610   25609   25612   25614   25610   25609   25612   25615
   25611   25609   25612   25613   25611   25609   25612   25614
   25611   25609   25612   25615   25612   25615   25618   25619
   25612   25615   25618   25620   25612   25615   25618   25621
   25613   25612   25615   25616   25613   25612   25615   25617
   25613   25612   25615   25618   25614   25612   25615   25616
   25614   25612   25615   25617   25614   25612   25615   25618
   25615   25618   25621   25622   25615   25618   25621   25623
   25615   25618   25621   25624   25616   25615   25618   25619
   25616   25615   25618   25620   25616   25615   25618   25621
   25617   25615   25618   25619   25617   25615   25618   25620
   25617   25615   25618   25621   25618   25621   25624   25625
   25618   25621   25624   25626   25618   25621   25624   25627
   25619   25618   25621   25622   25619   25618   25621   25623
   25619   25618   25621   25624   25620   25618   25621   25622
   25620   25618   25621   25623   25620   25618   25621   25624
   25621   25624   25627   25628   25621   25624   25627   25629
   25621   25624   25627   25630   25622   25621   25624   25625
   25622   25621   25624   25626   25622   25621   25624   25627
   25623   25621   25624   25625   25623   25621   25624   25626
   25623   25621   25624   25627   25624   25627   25630   25631
   25624   25627   25630   25632   25624   25627   25630   25633
   25625   25624   25627   25628   25625   25624   25627   25629
   25625   25624   25627   25630   25626   25624   25627   25628
   25626   25624   25627   25629   25626   25624   25627   25630
   25627   25630   25633   25634   25627   25630   25633   25635
   25627   25630   25633   25636   25628   25627   25630   25631
   25628   25627   25630   25632   25628   25627   25630   25633
   25629   25627   25630   25631   25629   25627   25630   25632
   25629   25627   25630   25633   25630   25633   25636   25637
   25630   25633   25636   25638   25630   25633   25636   25639
   25631   25630   25633   25634   25631   25630   25633   25635
   25631   25630   25633   25636   25632   25630   25633   25634
   25632   25630   25633   25635   25632   25630   25633   25636
   25634   25633   25636   25637   25634   25633   25636   25638
   25634   25633   25636   25639   25635   25633   25636   25637
   25635   25633   25636   25638   25635   25633   25636   25639
   25640   25653   25656   25657   25640   25653   25656   25658
   25640   25653   25656   25663   25641   25640   25645   25646
   25641   25640   25645   25647   25641   25640   25645   25648
   25641   25640   25649   25650   25641   25640   25649   25651
   25641   25640   25649   25652   25641   25640   25653   25654
   25641   25640   25653   25655   25641   25640   25653   25656
   25645   25640   25641   25642   25645   25640   25641   25643
   25645   25640   25641   25644   25645   25640   25649   25650
   25645   25640   25649   25651   25645   25640   25649   25652
   25645   25640   25653   25654   25645   25640   25653   25655
   25645   25640   25653   25656   25649   25640   25641   25642
   25649   25640   25641   25643   25649   25640   25641   25644
   25649   25640   25645   25646   25649   25640   25645   25647
   25649   25640   25645   25648   25649   25640   25653   25654
   25649   25640   25653   25655   25649   25640   25653   25656
   25653   25640   25641   25642   25653   25640   25641   25643
   25653   25640   25641   25644   25653   25640   25645   25646
   25653   25640   25645   25647   25653   25640   25645   25648
   25653   25640   25649   25650   25653   25640   25649   25651
   25653   25640   25649   25652   25653   25656   25663   25659
   25654   25653   25656   25657   25654   25653   25656   25658
   25654   25653   25656   25663   25655   25653   25656   25657
   25655   25653   25656   25658   25655   25653   25656   25663
   25657   25656   25663   25659   25658   25656   25663   25659
   25659   25662   25664   25665   25659   25662   25664   25666
   25659   25662   25664   25667   25660   25659   25663   25656
   25660   25659   25662   25664   25661   25659   25663   25656
   25661   25659   25662   25664   25662   25659   25663   25656
   25662   25664   25667   25668   25662   25664   25667   25675
   25662   25664   25667   25669   25663   25659   25662   25664
   25664   25667   25675   25676   25664   25667   25675   25677
   25664   25667   25675   25678   25664   25667   25669   25670
   25665   25664   25667   25668   25665   25664   25667   25675
   25665   25664   25667   25669   25666   25664   25667   25668
   25666   25664   25667   25675   25666   25664   25667   25669
   25667   25675   25678   25679   25667   25669   25670   25672
   25667   25669   25670   25671   25668   25667   25675   25676
   25668   25667   25675   25677   25668   25667   25675   25678
   25668   25667   25669   25670   25669   25670   25672   25673
   25669   25670   25672   25674   25669   25670   25672   25684
   25669   25667   25675   25676   25669   25667   25675   25677
   25669   25667   25675   25678   25670   25672   25684   25685
   25670   25672   25684   25686   25670   25672   25684   25687
   25671   25670   25672   25673   25671   25670   25672   25674
   25671   25670   25672   25684   25672   25684   25687   25688
   25672   25684   25687   25689   25672   25684   25687   25690
   25673   25672   25684   25685   25673   25672   25684   25686
   25673   25672   25684   25687   25674   25672   25684   25685
   25674   25672   25684   25686   25674   25672   25684   25687
   25675   25667   25669   25670   25675   25678   25679   25681
   25675   25678   25679   25680   25676   25675   25678   25679
   25677   25675   25678   25679   25678   25679   25681   25682
   25678   25679   25681   25683   25678   25679   25681   25721
   25679   25681   25721   25722   25679   25681   25721   25723
   25679   25681   25721   25724   25680   25679   25681   25682
   25680   25679   25681   25683   25680   25679   25681   25721
   25681   25721   25724   25725   25681   25721   25724   25726
   25681   25721   25724   25727   25682   25681   25721   25722
   25682   25681   25721   25723   25682   25681   25721   25724
   25683   25681   25721   25722   25683   25681   25721   25723
   25683   25681   25721   25724   25684   25687   25690   25691
   25684   25687   25690   25692   25684   25687   25690   25693
   25685   25684   25687   25688   25685   25684   25687   25689
   25685   25684   25687   25690   25686   25684   25687   25688
   25686   25684   25687   25689   25686   25684   25687   25690
   25687   25690   25693   25694   25687   25690   25693   25695
   25687   25690   25693   25696   25688   25687   25690   25691
   25688   25687   25690   25692   25688   25687   25690   25693
   25689   25687   25690   25691   25689   25687   25690   25692
   25689   25687   25690   25693   25690   25693   25696   25697
   25690   25693   25696   25698   25690   25693   25696   25699
   25691   25690   25693   25694   25691   25690   25693   25695
   25691   25690   25693   25696   25692   25690   25693   25694
   25692   25690   25693   25695   25692   25690   25693   25696
   25693   25696   25699   25700   25693   25696   25699   25701
   25693   25696   25699   25702   25694   25693   25696   25697
   25694   25693   25696   25698   25694   25693   25696   25699
   25695   25693   25696   25697   25695   25693   25696   25698
   25695   25693   25696   25699   25696   25699   25702   25703
   25696   25699   25702   25704   25696   25699   25702   25705
   25697   25696   25699   25700   25697   25696   25699   25701
   25697   25696   25699   25702   25698   25696   25699   25700
   25698   25696   25699   25701   25698   25696   25699   25702
   25699   25702   25705   25706   25699   25702   25705   25707
   25699   25702   25705   25708   25700   25699   25702   25703
   25700   25699   25702   25704   25700   25699   25702   25705
   25701   25699   25702   25703   25701   25699   25702   25704
   25701   25699   25702   25705   25702   25705   25708   25709
   25702   25705   25708   25710   25702   25705   25708   25711
   25703   25702   25705   25706   25703   25702   25705   25707
   25703   25702   25705   25708   25704   25702   25705   25706
   25704   25702   25705   25707   25704   25702   25705   25708
   25705   25708   25711   25712   25705   25708   25711   25713
   25705   25708   25711   25714   25706   25705   25708   25709
   25706   25705   25708   25710   25706   25705   25708   25711
   25707   25705   25708   25709   25707   25705   25708   25710
   25707   25705   25708   25711   25708   25711   25714   25715
   25708   25711   25714   25716   25708   25711   25714   25717
   25709   25708   25711   25712   25709   25708   25711   25713
   25709   25708   25711   25714   25710   25708   25711   25712
   25710   25708   25711   25713   25710   25708   25711   25714
   25711   25714   25717   25718   25711   25714   25717   25719
   25711   25714   25717   25720   25712   25711   25714   25715
   25712   25711   25714   25716   25712   25711   25714   25717
   25713   25711   25714   25715   25713   25711   25714   25716
   25713   25711   25714   25717   25715   25714   25717   25718
   25715   25714   25717   25719   25715   25714   25717   25720
   25716   25714   25717   25718   25716   25714   25717   25719
   25716   25714   25717   25720   25721   25724   25727   25728
   25721   25724   25727   25729   25721   25724   25727   25730
   25722   25721   25724   25725   25722   25721   25724   25726
   25722   25721   25724   25727   25723   25721   25724   25725
   25723   25721   25724   25726   25723   25721   25724   25727
   25724   25727   25730   25731   25724   25727   25730   25732
   25724   25727   25730   25733   25725   25724   25727   25728
   25725   25724   25727   25729   25725   25724   25727   25730
   25726   25724   25727   25728   25726   25724   25727   25729
   25726   25724   25727   25730   25727   25730   25733   25734
   25727   25730   25733   25735   25727   25730   25733   25736
   25728   25727   25730   25731   25728   25727   25730   25732
   25728   25727   25730   25733   25729   25727   25730   25731
   25729   25727   25730   25732   25729   25727   25730   25733
   25730   25733   25736   25737   25730   25733   25736   25738
   25730   25733   25736   25739   25731   25730   25733   25734
   25731   25730   25733   25735   25731   25730   25733   25736
   25732   25730   25733   25734   25732   25730   25733   25735
   25732   25730   25733   25736   25733   25736   25739   25740
   25733   25736   25739   25741   25733   25736   25739   25742
   25734   25733   25736   25737   25734   25733   25736   25738
   25734   25733   25736   25739   25735   25733   25736   25737
   25735   25733   25736   25738   25735   25733   25736   25739
   25736   25739   25742   25743   25736   25739   25742   25744
   25736   25739   25742   25745   25737   25736   25739   25740
   25737   25736   25739   25741   25737   25736   25739   25742
   25738   25736   25739   25740   25738   25736   25739   25741
   25738   25736   25739   25742   25739   25742   25745   25746
   25739   25742   25745   25747   25739   25742   25745   25748
   25740   25739   25742   25743   25740   25739   25742   25744
   25740   25739   25742   25745   25741   25739   25742   25743
   25741   25739   25742   25744   25741   25739   25742   25745
   25742   25745   25748   25749   25742   25745   25748   25750
   25742   25745   25748   25751   25743   25742   25745   25746
   25743   25742   25745   25747   25743   25742   25745   25748
   25744   25742   25745   25746   25744   25742   25745   25747
   25744   25742   25745   25748   25745   25748   25751   25752
   25745   25748   25751   25753   25745   25748   25751   25754
   25746   25745   25748   25749   25746   25745   25748   25750
   25746   25745   25748   25751   25747   25745   25748   25749
   25747   25745   25748   25750   25747   25745   25748   25751
   25748   25751   25754   25755   25748   25751   25754   25756
   25748   25751   25754   25757   25749   25748   25751   25752
   25749   25748   25751   25753   25749   25748   25751   25754
   25750   25748   25751   25752   25750   25748   25751   25753
   25750   25748   25751   25754   25752   25751   25754   25755
   25752   25751   25754   25756   25752   25751   25754   25757
   25753   25751   25754   25755   25753   25751   25754   25756
   25753   25751   25754   25757   25758   25771   25774   25775
   25758   25771   25774   25776   25758   25771   25774   25781
   25759   25758   25763   25764   25759   25758   25763   25765
   25759   25758   25763   25766   25759   25758   25767   25768
   25759   25758   25767   25769   25759   25758   25767   25770
   25759   25758   25771   25772   25759   25758   25771   25773
   25759   25758   25771   25774   25763   25758   25759   25760
   25763   25758   25759   25761   25763   25758   25759   25762
   25763   25758   25767   25768   25763   25758   25767   25769
   25763   25758   25767   25770   25763   25758   25771   25772
   25763   25758   25771   25773   25763   25758   25771   25774
   25767   25758   25759   25760   25767   25758   25759   25761
   25767   25758   25759   25762   25767   25758   25763   25764
   25767   25758   25763   25765   25767   25758   25763   25766
   25767   25758   25771   25772   25767   25758   25771   25773
   25767   25758   25771   25774   25771   25758   25759   25760
   25771   25758   25759   25761   25771   25758   25759   25762
   25771   25758   25763   25764   25771   25758   25763   25765
   25771   25758   25763   25766   25771   25758   25767   25768
   25771   25758   25767   25769   25771   25758   25767   25770
   25771   25774   25781   25777   25772   25771   25774   25775
   25772   25771   25774   25776   25772   25771   25774   25781
   25773   25771   25774   25775   25773   25771   25774   25776
   25773   25771   25774   25781   25775   25774   25781   25777
   25776   25774   25781   25777   25777   25780   25782   25783
   25777   25780   25782   25784   25777   25780   25782   25785
   25778   25777   25781   25774   25778   25777   25780   25782
   25779   25777   25781   25774   25779   25777   25780   25782
   25780   25777   25781   25774   25780   25782   25785   25786
   25780   25782   25785   25793   25780   25782   25785   25787
   25781   25777   25780   25782   25782   25785   25793   25794
   25782   25785   25793   25795   25782   25785   25793   25796
   25782   25785   25787   25788   25783   25782   25785   25786
   25783   25782   25785   25793   25783   25782   25785   25787
   25784   25782   25785   25786   25784   25782   25785   25793
   25784   25782   25785   25787   25785   25793   25796   25797
   25785   25787   25788   25790   25785   25787   25788   25789
   25786   25785   25793   25794   25786   25785   25793   25795
   25786   25785   25793   25796   25786   25785   25787   25788
   25787   25788   25790   25791   25787   25788   25790   25792
   25787   25788   25790   25802   25787   25785   25793   25794
   25787   25785   25793   25795   25787   25785   25793   25796
   25788   25790   25802   25803   25788   25790   25802   25804
   25788   25790   25802   25805   25789   25788   25790   25791
   25789   25788   25790   25792   25789   25788   25790   25802
   25790   25802   25805   25806   25790   25802   25805   25807
   25790   25802   25805   25808   25791   25790   25802   25803
   25791   25790   25802   25804   25791   25790   25802   25805
   25792   25790   25802   25803   25792   25790   25802   25804
   25792   25790   25802   25805   25793   25785   25787   25788
   25793   25796   25797   25799   25793   25796   25797   25798
   25794   25793   25796   25797   25795   25793   25796   25797
   25796   25797   25799   25800   25796   25797   25799   25801
   25796   25797   25799   25839   25797   25799   25839   25840
   25797   25799   25839   25841   25797   25799   25839   25842
   25798   25797   25799   25800   25798   25797   25799   25801
   25798   25797   25799   25839   25799   25839   25842   25843
   25799   25839   25842   25844   25799   25839   25842   25845
   25800   25799   25839   25840   25800   25799   25839   25841
   25800   25799   25839   25842   25801   25799   25839   25840
   25801   25799   25839   25841   25801   25799   25839   25842
   25802   25805   25808   25809   25802   25805   25808   25810
   25802   25805   25808   25811   25803   25802   25805   25806
   25803   25802   25805   25807   25803   25802   25805   25808
   25804   25802   25805   25806   25804   25802   25805   25807
   25804   25802   25805   25808   25805   25808   25811   25812
   25805   25808   25811   25813   25805   25808   25811   25814
   25806   25805   25808   25809   25806   25805   25808   25810
   25806   25805   25808   25811   25807   25805   25808   25809
   25807   25805   25808   25810   25807   25805   25808   25811
   25808   25811   25814   25815   25808   25811   25814   25816
   25808   25811   25814   25817   25809   25808   25811   25812
   25809   25808   25811   25813   25809   25808   25811   25814
   25810   25808   25811   25812   25810   25808   25811   25813
   25810   25808   25811   25814   25811   25814   25817   25818
   25811   25814   25817   25819   25811   25814   25817   25820
   25812   25811   25814   25815   25812   25811   25814   25816
   25812   25811   25814   25817   25813   25811   25814   25815
   25813   25811   25814   25816   25813   25811   25814   25817
   25814   25817   25820   25821   25814   25817   25820   25822
   25814   25817   25820   25823   25815   25814   25817   25818
   25815   25814   25817   25819   25815   25814   25817   25820
   25816   25814   25817   25818   25816   25814   25817   25819
   25816   25814   25817   25820   25817   25820   25823   25824
   25817   25820   25823   25825   25817   25820   25823   25826
   25818   25817   25820   25821   25818   25817   25820   25822
   25818   25817   25820   25823   25819   25817   25820   25821
   25819   25817   25820   25822   25819   25817   25820   25823
   25820   25823   25826   25827   25820   25823   25826   25828
   25820   25823   25826   25829   25821   25820   25823   25824
   25821   25820   25823   25825   25821   25820   25823   25826
   25822   25820   25823   25824   25822   25820   25823   25825
   25822   25820   25823   25826   25823   25826   25829   25830
   25823   25826   25829   25831   25823   25826   25829   25832
   25824   25823   25826   25827   25824   25823   25826   25828
   25824   25823   25826   25829   25825   25823   25826   25827
   25825   25823   25826   25828   25825   25823   25826   25829
   25826   25829   25832   25833   25826   25829   25832   25834
   25826   25829   25832   25835   25827   25826   25829   25830
   25827   25826   25829   25831   25827   25826   25829   25832
   25828   25826   25829   25830   25828   25826   25829   25831
   25828   25826   25829   25832   25829   25832   25835   25836
   25829   25832   25835   25837   25829   25832   25835   25838
   25830   25829   25832   25833   25830   25829   25832   25834
   25830   25829   25832   25835   25831   25829   25832   25833
   25831   25829   25832   25834   25831   25829   25832   25835
   25833   25832   25835   25836   25833   25832   25835   25837
   25833   25832   25835   25838   25834   25832   25835   25836
   25834   25832   25835   25837   25834   25832   25835   25838
   25839   25842   25845   25846   25839   25842   25845   25847
   25839   25842   25845   25848   25840   25839   25842   25843
   25840   25839   25842   25844   25840   25839   25842   25845
   25841   25839   25842   25843   25841   25839   25842   25844
   25841   25839   25842   25845   25842   25845   25848   25849
   25842   25845   25848   25850   25842   25845   25848   25851
   25843   25842   25845   25846   25843   25842   25845   25847
   25843   25842   25845   25848   25844   25842   25845   25846
   25844   25842   25845   25847   25844   25842   25845   25848
   25845   25848   25851   25852   25845   25848   25851   25853
   25845   25848   25851   25854   25846   25845   25848   25849
   25846   25845   25848   25850   25846   25845   25848   25851
   25847   25845   25848   25849   25847   25845   25848   25850
   25847   25845   25848   25851   25848   25851   25854   25855
   25848   25851   25854   25856   25848   25851   25854   25857
   25849   25848   25851   25852   25849   25848   25851   25853
   25849   25848   25851   25854   25850   25848   25851   25852
   25850   25848   25851   25853   25850   25848   25851   25854
   25851   25854   25857   25858   25851   25854   25857   25859
   25851   25854   25857   25860   25852   25851   25854   25855
   25852   25851   25854   25856   25852   25851   25854   25857
   25853   25851   25854   25855   25853   25851   25854   25856
   25853   25851   25854   25857   25854   25857   25860   25861
   25854   25857   25860   25862   25854   25857   25860   25863
   25855   25854   25857   25858   25855   25854   25857   25859
   25855   25854   25857   25860   25856   25854   25857   25858
   25856   25854   25857   25859   25856   25854   25857   25860
   25857   25860   25863   25864   25857   25860   25863   25865
   25857   25860   25863   25866   25858   25857   25860   25861
   25858   25857   25860   25862   25858   25857   25860   25863
   25859   25857   25860   25861   25859   25857   25860   25862
   25859   25857   25860   25863   25860   25863   25866   25867
   25860   25863   25866   25868   25860   25863   25866   25869
   25861   25860   25863   25864   25861   25860   25863   25865
   25861   25860   25863   25866   25862   25860   25863   25864
   25862   25860   25863   25865   25862   25860   25863   25866
   25863   25866   25869   25870   25863   25866   25869   25871
   25863   25866   25869   25872   25864   25863   25866   25867
   25864   25863   25866   25868   25864   25863   25866   25869
   25865   25863   25866   25867   25865   25863   25866   25868
   25865   25863   25866   25869   25866   25869   25872   25873
   25866   25869   25872   25874   25866   25869   25872   25875
   25867   25866   25869   25870   25867   25866   25869   25871
   25867   25866   25869   25872   25868   25866   25869   25870
   25868   25866   25869   25871   25868   25866   25869   25872
   25870   25869   25872   25873   25870   25869   25872   25874
   25870   25869   25872   25875   25871   25869   25872   25873
   25871   25869   25872   25874   25871   25869   25872   25875
   25876   25889   25892   25893   25876   25889   25892   25894
   25876   25889   25892   25899   25877   25876   25881   25882
   25877   25876   25881   25883   25877   25876   25881   25884
   25877   25876   25885   25886   25877   25876   25885   25887
   25877   25876   25885   25888   25877   25876   25889   25890
   25877   25876   25889   25891   25877   25876   25889   25892
   25881   25876   25877   25878   25881   25876   25877   25879
   25881   25876   25877   25880   25881   25876   25885   25886
   25881   25876   25885   25887   25881   25876   25885   25888
   25881   25876   25889   25890   25881   25876   25889   25891
   25881   25876   25889   25892   25885   25876   25877   25878
   25885   25876   25877   25879   25885   25876   25877   25880
   25885   25876   25881   25882   25885   25876   25881   25883
   25885   25876   25881   25884   25885   25876   25889   25890
   25885   25876   25889   25891   25885   25876   25889   25892
   25889   25876   25877   25878   25889   25876   25877   25879
   25889   25876   25877   25880   25889   25876   25881   25882
   25889   25876   25881   25883   25889   25876   25881   25884
   25889   25876   25885   25886   25889   25876   25885   25887
   25889   25876   25885   25888   25889   25892   25899   25895
   25890   25889   25892   25893   25890   25889   25892   25894
   25890   25889   25892   25899   25891   25889   25892   25893
   25891   25889   25892   25894   25891   25889   25892   25899
   25893   25892   25899   25895   25894   25892   25899   25895
   25895   25898   25900   25901   25895   25898   25900   25902
   25895   25898   25900   25903   25896   25895   25899   25892
   25896   25895   25898   25900   25897   25895   25899   25892
   25897   25895   25898   25900   25898   25895   25899   25892
   25898   25900   25903   25904   25898   25900   25903   25911
   25898   25900   25903   25905   25899   25895   25898   25900
   25900   25903   25911   25912   25900   25903   25911   25913
   25900   25903   25911   25914   25900   25903   25905   25906
   25901   25900   25903   25904   25901   25900   25903   25911
   25901   25900   25903   25905   25902   25900   25903   25904
   25902   25900   25903   25911   25902   25900   25903   25905
   25903   25911   25914   25915   25903   25905   25906   25908
   25903   25905   25906   25907   25904   25903   25911   25912
   25904   25903   25911   25913   25904   25903   25911   25914
   25904   25903   25905   25906   25905   25906   25908   25909
   25905   25906   25908   25910   25905   25906   25908   25920
   25905   25903   25911   25912   25905   25903   25911   25913
   25905   25903   25911   25914   25906   25908   25920   25921
   25906   25908   25920   25922   25906   25908   25920   25923
   25907   25906   25908   25909   25907   25906   25908   25910
   25907   25906   25908   25920   25908   25920   25923   25924
   25908   25920   25923   25925   25908   25920   25923   25926
   25909   25908   25920   25921   25909   25908   25920   25922
   25909   25908   25920   25923   25910   25908   25920   25921
   25910   25908   25920   25922   25910   25908   25920   25923
   25911   25903   25905   25906   25911   25914   25915   25917
   25911   25914   25915   25916   25912   25911   25914   25915
   25913   25911   25914   25915   25914   25915   25917   25918
   25914   25915   25917   25919   25914   25915   25917   25957
   25915   25917   25957   25958   25915   25917   25957   25959
   25915   25917   25957   25960   25916   25915   25917   25918
   25916   25915   25917   25919   25916   25915   25917   25957
   25917   25957   25960   25961   25917   25957   25960   25962
   25917   25957   25960   25963   25918   25917   25957   25958
   25918   25917   25957   25959   25918   25917   25957   25960
   25919   25917   25957   25958   25919   25917   25957   25959
   25919   25917   25957   25960   25920   25923   25926   25927
   25920   25923   25926   25928   25920   25923   25926   25929
   25921   25920   25923   25924   25921   25920   25923   25925
   25921   25920   25923   25926   25922   25920   25923   25924
   25922   25920   25923   25925   25922   25920   25923   25926
   25923   25926   25929   25930   25923   25926   25929   25931
   25923   25926   25929   25932   25924   25923   25926   25927
   25924   25923   25926   25928   25924   25923   25926   25929
   25925   25923   25926   25927   25925   25923   25926   25928
   25925   25923   25926   25929   25926   25929   25932   25933
   25926   25929   25932   25934   25926   25929   25932   25935
   25927   25926   25929   25930   25927   25926   25929   25931
   25927   25926   25929   25932   25928   25926   25929   25930
   25928   25926   25929   25931   25928   25926   25929   25932
   25929   25932   25935   25936   25929   25932   25935   25937
   25929   25932   25935   25938   25930   25929   25932   25933
   25930   25929   25932   25934   25930   25929   25932   25935
   25931   25929   25932   25933   25931   25929   25932   25934
   25931   25929   25932   25935   25932   25935   25938   25939
   25932   25935   25938   25940   25932   25935   25938   25941
   25933   25932   25935   25936   25933   25932   25935   25937
   25933   25932   25935   25938   25934   25932   25935   25936
   25934   25932   25935   25937   25934   25932   25935   25938
   25935   25938   25941   25942   25935   25938   25941   25943
   25935   25938   25941   25944   25936   25935   25938   25939
   25936   25935   25938   25940   25936   25935   25938   25941
   25937   25935   25938   25939   25937   25935   25938   25940
   25937   25935   25938   25941   25938   25941   25944   25945
   25938   25941   25944   25946   25938   25941   25944   25947
   25939   25938   25941   25942   25939   25938   25941   25943
   25939   25938   25941   25944   25940   25938   25941   25942
   25940   25938   25941   25943   25940   25938   25941   25944
   25941   25944   25947   25948   25941   25944   25947   25949
   25941   25944   25947   25950   25942   25941   25944   25945
   25942   25941   25944   25946   25942   25941   25944   25947
   25943   25941   25944   25945   25943   25941   25944   25946
   25943   25941   25944   25947   25944   25947   25950   25951
   25944   25947   25950   25952   25944   25947   25950   25953
   25945   25944   25947   25948   25945   25944   25947   25949
   25945   25944   25947   25950   25946   25944   25947   25948
   25946   25944   25947   25949   25946   25944   25947   25950
   25947   25950   25953   25954   25947   25950   25953   25955
   25947   25950   25953   25956   25948   25947   25950   25951
   25948   25947   25950   25952   25948   25947   25950   25953
   25949   25947   25950   25951   25949   25947   25950   25952
   25949   25947   25950   25953   25951   25950   25953   25954
   25951   25950   25953   25955   25951   25950   25953   25956
   25952   25950   25953   25954   25952   25950   25953   25955
   25952   25950   25953   25956   25957   25960   25963   25964
   25957   25960   25963   25965   25957   25960   25963   25966
   25958   25957   25960   25961   25958   25957   25960   25962
   25958   25957   25960   25963   25959   25957   25960   25961
   25959   25957   25960   25962   25959   25957   25960   25963
   25960   25963   25966   25967   25960   25963   25966   25968
   25960   25963   25966   25969   25961   25960   25963   25964
   25961   25960   25963   25965   25961   25960   25963   25966
   25962   25960   25963   25964   25962   25960   25963   25965
   25962   25960   25963   25966   25963   25966   25969   25970
   25963   25966   25969   25971   25963   25966   25969   25972
   25964   25963   25966   25967   25964   25963   25966   25968
   25964   25963   25966   25969   25965   25963   25966   25967
   25965   25963   25966   25968   25965   25963   25966   25969
   25966   25969   25972   25973   25966   25969   25972   25974
   25966   25969   25972   25975   25967   25966   25969   25970
   25967   25966   25969   25971   25967   25966   25969   25972
   25968   25966   25969   25970   25968   25966   25969   25971
   25968   25966   25969   25972   25969   25972   25975   25976
   25969   25972   25975   25977   25969   25972   25975   25978
   25970   25969   25972   25973   25970   25969   25972   25974
   25970   25969   25972   25975   25971   25969   25972   25973
   25971   25969   25972   25974   25971   25969   25972   25975
   25972   25975   25978   25979   25972   25975   25978   25980
   25972   25975   25978   25981   25973   25972   25975   25976
   25973   25972   25975   25977   25973   25972   25975   25978
   25974   25972   25975   25976   25974   25972   25975   25977
   25974   25972   25975   25978   25975   25978   25981   25982
   25975   25978   25981   25983   25975   25978   25981   25984
   25976   25975   25978   25979   25976   25975   25978   25980
   25976   25975   25978   25981   25977   25975   25978   25979
   25977   25975   25978   25980   25977   25975   25978   25981
   25978   25981   25984   25985   25978   25981   25984   25986
   25978   25981   25984   25987   25979   25978   25981   25982
   25979   25978   25981   25983   25979   25978   25981   25984
   25980   25978   25981   25982   25980   25978   25981   25983
   25980   25978   25981   25984   25981   25984   25987   25988
   25981   25984   25987   25989   25981   25984   25987   25990
   25982   25981   25984   25985   25982   25981   25984   25986
   25982   25981   25984   25987   25983   25981   25984   25985
   25983   25981   25984   25986   25983   25981   25984   25987
   25984   25987   25990   25991   25984   25987   25990   25992
   25984   25987   25990   25993   25985   25984   25987   25988
   25985   25984   25987   25989   25985   25984   25987   25990
   25986   25984   25987   25988   25986   25984   25987   25989
   25986   25984   25987   25990   25988   25987   25990   25991
   25988   25987   25990   25992   25988   25987   25990   25993
   25989   25987   25990   25991   25989   25987   25990   25992
   25989   25987   25990   25993   25994   26007   26010   26011
   25994   26007   26010   26012   25994   26007   26010   26017
   25995   25994   25999   26000   25995   25994   25999   26001
   25995   25994   25999   26002   25995   25994   26003   26004
   25995   25994   26003   26005   25995   25994   26003   26006
   25995   25994   26007   26008   25995   25994   26007   26009
   25995   25994   26007   26010   25999   25994   25995   25996
   25999   25994   25995   25997   25999   25994   25995   25998
   25999   25994   26003   26004   25999   25994   26003   26005
   25999   25994   26003   26006   25999   25994   26007   26008
   25999   25994   26007   26009   25999   25994   26007   26010
   26003   25994   25995   25996   26003   25994   25995   25997
   26003   25994   25995   25998   26003   25994   25999   26000
   26003   25994   25999   26001   26003   25994   25999   26002
   26003   25994   26007   26008   26003   25994   26007   26009
   26003   25994   26007   26010   26007   25994   25995   25996
   26007   25994   25995   25997   26007   25994   25995   25998
   26007   25994   25999   26000   26007   25994   25999   26001
   26007   25994   25999   26002   26007   25994   26003   26004
   26007   25994   26003   26005   26007   25994   26003   26006
   26007   26010   26017   26013   26008   26007   26010   26011
   26008   26007   26010   26012   26008   26007   26010   26017
   26009   26007   26010   26011   26009   26007   26010   26012
   26009   26007   26010   26017   26011   26010   26017   26013
   26012   26010   26017   26013   26013   26016   26018   26019
   26013   26016   26018   26020   26013   26016   26018   26021
   26014   26013   26017   26010   26014   26013   26016   26018
   26015   26013   26017   26010   26015   26013   26016   26018
   26016   26013   26017   26010   26016   26018   26021   26022
   26016   26018   26021   26029   26016   26018   26021   26023
   26017   26013   26016   26018   26018   26021   26029   26030
   26018   26021   26029   26031   26018   26021   26029   26032
   26018   26021   26023   26024   26019   26018   26021   26022
   26019   26018   26021   26029   26019   26018   26021   26023
   26020   26018   26021   26022   26020   26018   26021   26029
   26020   26018   26021   26023   26021   26029   26032   26033
   26021   26023   26024   26026   26021   26023   26024   26025
   26022   26021   26029   26030   26022   26021   26029   26031
   26022   26021   26029   26032   26022   26021   26023   26024
   26023   26024   26026   26027   26023   26024   26026   26028
   26023   26024   26026   26038   26023   26021   26029   26030
   26023   26021   26029   26031   26023   26021   26029   26032
   26024   26026   26038   26039   26024   26026   26038   26040
   26024   26026   26038   26041   26025   26024   26026   26027
   26025   26024   26026   26028   26025   26024   26026   26038
   26026   26038   26041   26042   26026   26038   26041   26043
   26026   26038   26041   26044   26027   26026   26038   26039
   26027   26026   26038   26040   26027   26026   26038   26041
   26028   26026   26038   26039   26028   26026   26038   26040
   26028   26026   26038   26041   26029   26021   26023   26024
   26029   26032   26033   26035   26029   26032   26033   26034
   26030   26029   26032   26033   26031   26029   26032   26033
   26032   26033   26035   26036   26032   26033   26035   26037
   26032   26033   26035   26075   26033   26035   26075   26076
   26033   26035   26075   26077   26033   26035   26075   26078
   26034   26033   26035   26036   26034   26033   26035   26037
   26034   26033   26035   26075   26035   26075   26078   26079
   26035   26075   26078   26080   26035   26075   26078   26081
   26036   26035   26075   26076   26036   26035   26075   26077
   26036   26035   26075   26078   26037   26035   26075   26076
   26037   26035   26075   26077   26037   26035   26075   26078
   26038   26041   26044   26045   26038   26041   26044   26046
   26038   26041   26044   26047   26039   26038   26041   26042
   26039   26038   26041   26043   26039   26038   26041   26044
   26040   26038   26041   26042   26040   26038   26041   26043
   26040   26038   26041   26044   26041   26044   26047   26048
   26041   26044   26047   26049   26041   26044   26047   26050
   26042   26041   26044   26045   26042   26041   26044   26046
   26042   26041   26044   26047   26043   26041   26044   26045
   26043   26041   26044   26046   26043   26041   26044   26047
   26044   26047   26050   26051   26044   26047   26050   26052
   26044   26047   26050   26053   26045   26044   26047   26048
   26045   26044   26047   26049   26045   26044   26047   26050
   26046   26044   26047   26048   26046   26044   26047   26049
   26046   26044   26047   26050   26047   26050   26053   26054
   26047   26050   26053   26055   26047   26050   26053   26056
   26048   26047   26050   26051   26048   26047   26050   26052
   26048   26047   26050   26053   26049   26047   26050   26051
   26049   26047   26050   26052   26049   26047   26050   26053
   26050   26053   26056   26057   26050   26053   26056   26058
   26050   26053   26056   26059   26051   26050   26053   26054
   26051   26050   26053   26055   26051   26050   26053   26056
   26052   26050   26053   26054   26052   26050   26053   26055
   26052   26050   26053   26056   26053   26056   26059   26060
   26053   26056   26059   26061   26053   26056   26059   26062
   26054   26053   26056   26057   26054   26053   26056   26058
   26054   26053   26056   26059   26055   26053   26056   26057
   26055   26053   26056   26058   26055   26053   26056   26059
   26056   26059   26062   26063   26056   26059   26062   26064
   26056   26059   26062   26065   26057   26056   26059   26060
   26057   26056   26059   26061   26057   26056   26059   26062
   26058   26056   26059   26060   26058   26056   26059   26061
   26058   26056   26059   26062   26059   26062   26065   26066
   26059   26062   26065   26067   26059   26062   26065   26068
   26060   26059   26062   26063   26060   26059   26062   26064
   26060   26059   26062   26065   26061   26059   26062   26063
   26061   26059   26062   26064   26061   26059   26062   26065
   26062   26065   26068   26069   26062   26065   26068   26070
   26062   26065   26068   26071   26063   26062   26065   26066
   26063   26062   26065   26067   26063   26062   26065   26068
   26064   26062   26065   26066   26064   26062   26065   26067
   26064   26062   26065   26068   26065   26068   26071   26072
   26065   26068   26071   26073   26065   26068   26071   26074
   26066   26065   26068   26069   26066   26065   26068   26070
   26066   26065   26068   26071   26067   26065   26068   26069
   26067   26065   26068   26070   26067   26065   26068   26071
   26069   26068   26071   26072   26069   26068   26071   26073
   26069   26068   26071   26074   26070   26068   26071   26072
   26070   26068   26071   26073   26070   26068   26071   26074
   26075   26078   26081   26082   26075   26078   26081   26083
   26075   26078   26081   26084   26076   26075   26078   26079
   26076   26075   26078   26080   26076   26075   26078   26081
   26077   26075   26078   26079   26077   26075   26078   26080
   26077   26075   26078   26081   26078   26081   26084   26085
   26078   26081   26084   26086   26078   26081   26084   26087
   26079   26078   26081   26082   26079   26078   26081   26083
   26079   26078   26081   26084   26080   26078   26081   26082
   26080   26078   26081   26083   26080   26078   26081   26084
   26081   26084   26087   26088   26081   26084   26087   26089
   26081   26084   26087   26090   26082   26081   26084   26085
   26082   26081   26084   26086   26082   26081   26084   26087
   26083   26081   26084   26085   26083   26081   26084   26086
   26083   26081   26084   26087   26084   26087   26090   26091
   26084   26087   26090   26092   26084   26087   26090   26093
   26085   26084   26087   26088   26085   26084   26087   26089
   26085   26084   26087   26090   26086   26084   26087   26088
   26086   26084   26087   26089   26086   26084   26087   26090
   26087   26090   26093   26094   26087   26090   26093   26095
   26087   26090   26093   26096   26088   26087   26090   26091
   26088   26087   26090   26092   26088   26087   26090   26093
   26089   26087   26090   26091   26089   26087   26090   26092
   26089   26087   26090   26093   26090   26093   26096   26097
   26090   26093   26096   26098   26090   26093   26096   26099
   26091   26090   26093   26094   26091   26090   26093   26095
   26091   26090   26093   26096   26092   26090   26093   26094
   26092   26090   26093   26095   26092   26090   26093   26096
   26093   26096   26099   26100   26093   26096   26099   26101
   26093   26096   26099   26102   26094   26093   26096   26097
   26094   26093   26096   26098   26094   26093   26096   26099
   26095   26093   26096   26097   26095   26093   26096   26098
   26095   26093   26096   26099   26096   26099   26102   26103
   26096   26099   26102   26104   26096   26099   26102   26105
   26097   26096   26099   26100   26097   26096   26099   26101
   26097   26096   26099   26102   26098   26096   26099   26100
   26098   26096   26099   26101   26098   26096   26099   26102
   26099   26102   26105   26106   26099   26102   26105   26107
   26099   26102   26105   26108   26100   26099   26102   26103
   26100   26099   26102   26104   26100   26099   26102   26105
   26101   26099   26102   26103   26101   26099   26102   26104
   26101   26099   26102   26105   26102   26105   26108   26109
   26102   26105   26108   26110   26102   26105   26108   26111
   26103   26102   26105   26106   26103   26102   26105   26107
   26103   26102   26105   26108   26104   26102   26105   26106
   26104   26102   26105   26107   26104   26102   26105   26108
   26106   26105   26108   26109   26106   26105   26108   26110
   26106   26105   26108   26111   26107   26105   26108   26109
   26107   26105   26108   26110   26107   26105   26108   26111
   26112   26125   26128   26129   26112   26125   26128   26130
   26112   26125   26128   26135   26113   26112   26117   26118
   26113   26112   26117   26119   26113   26112   26117   26120
   26113   26112   26121   26122   26113   26112   26121   26123
   26113   26112   26121   26124   26113   26112   26125   26126
   26113   26112   26125   26127   26113   26112   26125   26128
   26117   26112   26113   26114   26117   26112   26113   26115
   26117   26112   26113   26116   26117   26112   26121   26122
   26117   26112   26121   26123   26117   26112   26121   26124
   26117   26112   26125   26126   26117   26112   26125   26127
   26117   26112   26125   26128   26121   26112   26113   26114
   26121   26112   26113   26115   26121   26112   26113   26116
   26121   26112   26117   26118   26121   26112   26117   26119
   26121   26112   26117   26120   26121   26112   26125   26126
   26121   26112   26125   26127   26121   26112   26125   26128
   26125   26112   26113   26114   26125   26112   26113   26115
   26125   26112   26113   26116   26125   26112   26117   26118
   26125   26112   26117   26119   26125   26112   26117   26120
   26125   26112   26121   26122   26125   26112   26121   26123
   26125   26112   26121   26124   26125   26128   26135   26131
   26126   26125   26128   26129   26126   26125   26128   26130
   26126   26125   26128   26135   26127   26125   26128   26129
   26127   26125   26128   26130   26127   26125   26128   26135
   26129   26128   26135   26131   26130   26128   26135   26131
   26131   26134   26136   26137   26131   26134   26136   26138
   26131   26134   26136   26139   26132   26131   26135   26128
   26132   26131   26134   26136   26133   26131   26135   26128
   26133   26131   26134   26136   26134   26131   26135   26128
   26134   26136   26139   26140   26134   26136   26139   26147
   26134   26136   26139   26141   26135   26131   26134   26136
   26136   26139   26147   26148   26136   26139   26147   26149
   26136   26139   26147   26150   26136   26139   26141   26142
   26137   26136   26139   26140   26137   26136   26139   26147
   26137   26136   26139   26141   26138   26136   26139   26140
   26138   26136   26139   26147   26138   26136   26139   26141
   26139   26147   26150   26151   26139   26141   26142   26144
   26139   26141   26142   26143   26140   26139   26147   26148
   26140   26139   26147   26149   26140   26139   26147   26150
   26140   26139   26141   26142   26141   26142   26144   26145
   26141   26142   26144   26146   26141   26142   26144   26156
   26141   26139   26147   26148   26141   26139   26147   26149
   26141   26139   26147   26150   26142   26144   26156   26157
   26142   26144   26156   26158   26142   26144   26156   26159
   26143   26142   26144   26145   26143   26142   26144   26146
   26143   26142   26144   26156   26144   26156   26159   26160
   26144   26156   26159   26161   26144   26156   26159   26162
   26145   26144   26156   26157   26145   26144   26156   26158
   26145   26144   26156   26159   26146   26144   26156   26157
   26146   26144   26156   26158   26146   26144   26156   26159
   26147   26139   26141   26142   26147   26150   26151   26153
   26147   26150   26151   26152   26148   26147   26150   26151
   26149   26147   26150   26151   26150   26151   26153   26154
   26150   26151   26153   26155   26150   26151   26153   26193
   26151   26153   26193   26194   26151   26153   26193   26195
   26151   26153   26193   26196   26152   26151   26153   26154
   26152   26151   26153   26155   26152   26151   26153   26193
   26153   26193   26196   26197   26153   26193   26196   26198
   26153   26193   26196   26199   26154   26153   26193   26194
   26154   26153   26193   26195   26154   26153   26193   26196
   26155   26153   26193   26194   26155   26153   26193   26195
   26155   26153   26193   26196   26156   26159   26162   26163
   26156   26159   26162   26164   26156   26159   26162   26165
   26157   26156   26159   26160   26157   26156   26159   26161
   26157   26156   26159   26162   26158   26156   26159   26160
   26158   26156   26159   26161   26158   26156   26159   26162
   26159   26162   26165   26166   26159   26162   26165   26167
   26159   26162   26165   26168   26160   26159   26162   26163
   26160   26159   26162   26164   26160   26159   26162   26165
   26161   26159   26162   26163   26161   26159   26162   26164
   26161   26159   26162   26165   26162   26165   26168   26169
   26162   26165   26168   26170   26162   26165   26168   26171
   26163   26162   26165   26166   26163   26162   26165   26167
   26163   26162   26165   26168   26164   26162   26165   26166
   26164   26162   26165   26167   26164   26162   26165   26168
   26165   26168   26171   26172   26165   26168   26171   26173
   26165   26168   26171   26174   26166   26165   26168   26169
   26166   26165   26168   26170   26166   26165   26168   26171
   26167   26165   26168   26169   26167   26165   26168   26170
   26167   26165   26168   26171   26168   26171   26174   26175
   26168   26171   26174   26176   26168   26171   26174   26177
   26169   26168   26171   26172   26169   26168   26171   26173
   26169   26168   26171   26174   26170   26168   26171   26172
   26170   26168   26171   26173   26170   26168   26171   26174
   26171   26174   26177   26178   26171   26174   26177   26179
   26171   26174   26177   26180   26172   26171   26174   26175
   26172   26171   26174   26176   26172   26171   26174   26177
   26173   26171   26174   26175   26173   26171   26174   26176
   26173   26171   26174   26177   26174   26177   26180   26181
   26174   26177   26180   26182   26174   26177   26180   26183
   26175   26174   26177   26178   26175   26174   26177   26179
   26175   26174   26177   26180   26176   26174   26177   26178
   26176   26174   26177   26179   26176   26174   26177   26180
   26177   26180   26183   26184   26177   26180   26183   26185
   26177   26180   26183   26186   26178   26177   26180   26181
   26178   26177   26180   26182   26178   26177   26180   26183
   26179   26177   26180   26181   26179   26177   26180   26182
   26179   26177   26180   26183   26180   26183   26186   26187
   26180   26183   26186   26188   26180   26183   26186   26189
   26181   26180   26183   26184   26181   26180   26183   26185
   26181   26180   26183   26186   26182   26180   26183   26184
   26182   26180   26183   26185   26182   26180   26183   26186
   26183   26186   26189   26190   26183   26186   26189   26191
   26183   26186   26189   26192   26184   26183   26186   26187
   26184   26183   26186   26188   26184   26183   26186   26189
   26185   26183   26186   26187   26185   26183   26186   26188
   26185   26183   26186   26189   26187   26186   26189   26190
   26187   26186   26189   26191   26187   26186   26189   26192
   26188   26186   26189   26190   26188   26186   26189   26191
   26188   26186   26189   26192   26193   26196   26199   26200
   26193   26196   26199   26201   26193   26196   26199   26202
   26194   26193   26196   26197   26194   26193   26196   26198
   26194   26193   26196   26199   26195   26193   26196   26197
   26195   26193   26196   26198   26195   26193   26196   26199
   26196   26199   26202   26203   26196   26199   26202   26204
   26196   26199   26202   26205   26197   26196   26199   26200
   26197   26196   26199   26201   26197   26196   26199   26202
   26198   26196   26199   26200   26198   26196   26199   26201
   26198   26196   26199   26202   26199   26202   26205   26206
   26199   26202   26205   26207   26199   26202   26205   26208
   26200   26199   26202   26203   26200   26199   26202   26204
   26200   26199   26202   26205   26201   26199   26202   26203
   26201   26199   26202   26204   26201   26199   26202   26205
   26202   26205   26208   26209   26202   26205   26208   26210
   26202   26205   26208   26211   26203   26202   26205   26206
   26203   26202   26205   26207   26203   26202   26205   26208
   26204   26202   26205   26206   26204   26202   26205   26207
   26204   26202   26205   26208   26205   26208   26211   26212
   26205   26208   26211   26213   26205   26208   26211   26214
   26206   26205   26208   26209   26206   26205   26208   26210
   26206   26205   26208   26211   26207   26205   26208   26209
   26207   26205   26208   26210   26207   26205   26208   26211
   26208   26211   26214   26215   26208   26211   26214   26216
   26208   26211   26214   26217   26209   26208   26211   26212
   26209   26208   26211   26213   26209   26208   26211   26214
   26210   26208   26211   26212   26210   26208   26211   26213
   26210   26208   26211   26214   26211   26214   26217   26218
   26211   26214   26217   26219   26211   26214   26217   26220
   26212   26211   26214   26215   26212   26211   26214   26216
   26212   26211   26214   26217   26213   26211   26214   26215
   26213   26211   26214   26216   26213   26211   26214   26217
   26214   26217   26220   26221   26214   26217   26220   26222
   26214   26217   26220   26223   26215   26214   26217   26218
   26215   26214   26217   26219   26215   26214   26217   26220
   26216   26214   26217   26218   26216   26214   26217   26219
   26216   26214   26217   26220   26217   26220   26223   26224
   26217   26220   26223   26225   26217   26220   26223   26226
   26218   26217   26220   26221   26218   26217   26220   26222
   26218   26217   26220   26223   26219   26217   26220   26221
   26219   26217   26220   26222   26219   26217   26220   26223
   26220   26223   26226   26227   26220   26223   26226   26228
   26220   26223   26226   26229   26221   26220   26223   26224
   26221   26220   26223   26225   26221   26220   26223   26226
   26222   26220   26223   26224   26222   26220   26223   26225
   26222   26220   26223   26226   26224   26223   26226   26227
   26224   26223   26226   26228   26224   26223   26226   26229
   26225   26223   26226   26227   26225   26223   26226   26228
   26225   26223   26226   26229   26230   26243   26246   26247
   26230   26243   26246   26248   26230   26243   26246   26253
   26231   26230   26235   26236   26231   26230   26235   26237
   26231   26230   26235   26238   26231   26230   26239   26240
   26231   26230   26239   26241   26231   26230   26239   26242
   26231   26230   26243   26244   26231   26230   26243   26245
   26231   26230   26243   26246   26235   26230   26231   26232
   26235   26230   26231   26233   26235   26230   26231   26234
   26235   26230   26239   26240   26235   26230   26239   26241
   26235   26230   26239   26242   26235   26230   26243   26244
   26235   26230   26243   26245   26235   26230   26243   26246
   26239   26230   26231   26232   26239   26230   26231   26233
   26239   26230   26231   26234   26239   26230   26235   26236
   26239   26230   26235   26237   26239   26230   26235   26238
   26239   26230   26243   26244   26239   26230   26243   26245
   26239   26230   26243   26246   26243   26230   26231   26232
   26243   26230   26231   26233   26243   26230   26231   26234
   26243   26230   26235   26236   26243   26230   26235   26237
   26243   26230   26235   26238   26243   26230   26239   26240
   26243   26230   26239   26241   26243   26230   26239   26242
   26243   26246   26253   26249   26244   26243   26246   26247
   26244   26243   26246   26248   26244   26243   26246   26253
   26245   26243   26246   26247   26245   26243   26246   26248
   26245   26243   26246   26253   26247   26246   26253   26249
   26248   26246   26253   26249   26249   26252   26254   26255
   26249   26252   26254   26256   26249   26252   26254   26257
   26250   26249   26253   26246   26250   26249   26252   26254
   26251   26249   26253   26246   26251   26249   26252   26254
   26252   26249   26253   26246   26252   26254   26257   26258
   26252   26254   26257   26265   26252   26254   26257   26259
   26253   26249   26252   26254   26254   26257   26265   26266
   26254   26257   26265   26267   26254   26257   26265   26268
   26254   26257   26259   26260   26255   26254   26257   26258
   26255   26254   26257   26265   26255   26254   26257   26259
   26256   26254   26257   26258   26256   26254   26257   26265
   26256   26254   26257   26259   26257   26265   26268   26269
   26257   26259   26260   26262   26257   26259   26260   26261
   26258   26257   26265   26266   26258   26257   26265   26267
   26258   26257   26265   26268   26258   26257   26259   26260
   26259   26260   26262   26263   26259   26260   26262   26264
   26259   26260   26262   26274   26259   26257   26265   26266
   26259   26257   26265   26267   26259   26257   26265   26268
   26260   26262   26274   26275   26260   26262   26274   26276
   26260   26262   26274   26277   26261   26260   26262   26263
   26261   26260   26262   26264   26261   26260   26262   26274
   26262   26274   26277   26278   26262   26274   26277   26279
   26262   26274   26277   26280   26263   26262   26274   26275
   26263   26262   26274   26276   26263   26262   26274   26277
   26264   26262   26274   26275   26264   26262   26274   26276
   26264   26262   26274   26277   26265   26257   26259   26260
   26265   26268   26269   26271   26265   26268   26269   26270
   26266   26265   26268   26269   26267   26265   26268   26269
   26268   26269   26271   26272   26268   26269   26271   26273
   26268   26269   26271   26311   26269   26271   26311   26312
   26269   26271   26311   26313   26269   26271   26311   26314
   26270   26269   26271   26272   26270   26269   26271   26273
   26270   26269   26271   26311   26271   26311   26314   26315
   26271   26311   26314   26316   26271   26311   26314   26317
   26272   26271   26311   26312   26272   26271   26311   26313
   26272   26271   26311   26314   26273   26271   26311   26312
   26273   26271   26311   26313   26273   26271   26311   26314
   26274   26277   26280   26281   26274   26277   26280   26282
   26274   26277   26280   26283   26275   26274   26277   26278
   26275   26274   26277   26279   26275   26274   26277   26280
   26276   26274   26277   26278   26276   26274   26277   26279
   26276   26274   26277   26280   26277   26280   26283   26284
   26277   26280   26283   26285   26277   26280   26283   26286
   26278   26277   26280   26281   26278   26277   26280   26282
   26278   26277   26280   26283   26279   26277   26280   26281
   26279   26277   26280   26282   26279   26277   26280   26283
   26280   26283   26286   26287   26280   26283   26286   26288
   26280   26283   26286   26289   26281   26280   26283   26284
   26281   26280   26283   26285   26281   26280   26283   26286
   26282   26280   26283   26284   26282   26280   26283   26285
   26282   26280   26283   26286   26283   26286   26289   26290
   26283   26286   26289   26291   26283   26286   26289   26292
   26284   26283   26286   26287   26284   26283   26286   26288
   26284   26283   26286   26289   26285   26283   26286   26287
   26285   26283   26286   26288   26285   26283   26286   26289
   26286   26289   26292   26293   26286   26289   26292   26294
   26286   26289   26292   26295   26287   26286   26289   26290
   26287   26286   26289   26291   26287   26286   26289   26292
   26288   26286   26289   26290   26288   26286   26289   26291
   26288   26286   26289   26292   26289   26292   26295   26296
   26289   26292   26295   26297   26289   26292   26295   26298
   26290   26289   26292   26293   26290   26289   26292   26294
   26290   26289   26292   26295   26291   26289   26292   26293
   26291   26289   26292   26294   26291   26289   26292   26295
   26292   26295   26298   26299   26292   26295   26298   26300
   26292   26295   26298   26301   26293   26292   26295   26296
   26293   26292   26295   26297   26293   26292   26295   26298
   26294   26292   26295   26296   26294   26292   26295   26297
   26294   26292   26295   26298   26295   26298   26301   26302
   26295   26298   26301   26303   26295   26298   26301   26304
   26296   26295   26298   26299   26296   26295   26298   26300
   26296   26295   26298   26301   26297   26295   26298   26299
   26297   26295   26298   26300   26297   26295   26298   26301
   26298   26301   26304   26305   26298   26301   26304   26306
   26298   26301   26304   26307   26299   26298   26301   26302
   26299   26298   26301   26303   26299   26298   26301   26304
   26300   26298   26301   26302   26300   26298   26301   26303
   26300   26298   26301   26304   26301   26304   26307   26308
   26301   26304   26307   26309   26301   26304   26307   26310
   26302   26301   26304   26305   26302   26301   26304   26306
   26302   26301   26304   26307   26303   26301   26304   26305
   26303   26301   26304   26306   26303   26301   26304   26307
   26305   26304   26307   26308   26305   26304   26307   26309
   26305   26304   26307   26310   26306   26304   26307   26308
   26306   26304   26307   26309   26306   26304   26307   26310
   26311   26314   26317   26318   26311   26314   26317   26319
   26311   26314   26317   26320   26312   26311   26314   26315
   26312   26311   26314   26316   26312   26311   26314   26317
   26313   26311   26314   26315   26313   26311   26314   26316
   26313   26311   26314   26317   26314   26317   26320   26321
   26314   26317   26320   26322   26314   26317   26320   26323
   26315   26314   26317   26318   26315   26314   26317   26319
   26315   26314   26317   26320   26316   26314   26317   26318
   26316   26314   26317   26319   26316   26314   26317   26320
   26317   26320   26323   26324   26317   26320   26323   26325
   26317   26320   26323   26326   26318   26317   26320   26321
   26318   26317   26320   26322   26318   26317   26320   26323
   26319   26317   26320   26321   26319   26317   26320   26322
   26319   26317   26320   26323   26320   26323   26326   26327
   26320   26323   26326   26328   26320   26323   26326   26329
   26321   26320   26323   26324   26321   26320   26323   26325
   26321   26320   26323   26326   26322   26320   26323   26324
   26322   26320   26323   26325   26322   26320   26323   26326
   26323   26326   26329   26330   26323   26326   26329   26331
   26323   26326   26329   26332   26324   26323   26326   26327
   26324   26323   26326   26328   26324   26323   26326   26329
   26325   26323   26326   26327   26325   26323   26326   26328
   26325   26323   26326   26329   26326   26329   26332   26333
   26326   26329   26332   26334   26326   26329   26332   26335
   26327   26326   26329   26330   26327   26326   26329   26331
   26327   26326   26329   26332   26328   26326   26329   26330
   26328   26326   26329   26331   26328   26326   26329   26332
   26329   26332   26335   26336   26329   26332   26335   26337
   26329   26332   26335   26338   26330   26329   26332   26333
   26330   26329   26332   26334   26330   26329   26332   26335
   26331   26329   26332   26333   26331   26329   26332   26334
   26331   26329   26332   26335   26332   26335   26338   26339
   26332   26335   26338   26340   26332   26335   26338   26341
   26333   26332   26335   26336   26333   26332   26335   26337
   26333   26332   26335   26338   26334   26332   26335   26336
   26334   26332   26335   26337   26334   26332   26335   26338
   26335   26338   26341   26342   26335   26338   26341   26343
   26335   26338   26341   26344   26336   26335   26338   26339
   26336   26335   26338   26340   26336   26335   26338   26341
   26337   26335   26338   26339   26337   26335   26338   26340
   26337   26335   26338   26341   26338   26341   26344   26345
   26338   26341   26344   26346   26338   26341   26344   26347
   26339   26338   26341   26342   26339   26338   26341   26343
   26339   26338   26341   26344   26340   26338   26341   26342
   26340   26338   26341   26343   26340   26338   26341   26344
   26342   26341   26344   26345   26342   26341   26344   26346
   26342   26341   26344   26347   26343   26341   26344   26345
   26343   26341   26344   26346   26343   26341   26344   26347
   26348   26361   26364   26365   26348   26361   26364   26366
   26348   26361   26364   26371   26349   26348   26353   26354
   26349   26348   26353   26355   26349   26348   26353   26356
   26349   26348   26357   26358   26349   26348   26357   26359
   26349   26348   26357   26360   26349   26348   26361   26362
   26349   26348   26361   26363   26349   26348   26361   26364
   26353   26348   26349   26350   26353   26348   26349   26351
   26353   26348   26349   26352   26353   26348   26357   26358
   26353   26348   26357   26359   26353   26348   26357   26360
   26353   26348   26361   26362   26353   26348   26361   26363
   26353   26348   26361   26364   26357   26348   26349   26350
   26357   26348   26349   26351   26357   26348   26349   26352
   26357   26348   26353   26354   26357   26348   26353   26355
   26357   26348   26353   26356   26357   26348   26361   26362
   26357   26348   26361   26363   26357   26348   26361   26364
   26361   26348   26349   26350   26361   26348   26349   26351
   26361   26348   26349   26352   26361   26348   26353   26354
   26361   26348   26353   26355   26361   26348   26353   26356
   26361   26348   26357   26358   26361   26348   26357   26359
   26361   26348   26357   26360   26361   26364   26371   26367
   26362   26361   26364   26365   26362   26361   26364   26366
   26362   26361   26364   26371   26363   26361   26364   26365
   26363   26361   26364   26366   26363   26361   26364   26371
   26365   26364   26371   26367   26366   26364   26371   26367
   26367   26370   26372   26373   26367   26370   26372   26374
   26367   26370   26372   26375   26368   26367   26371   26364
   26368   26367   26370   26372   26369   26367   26371   26364
   26369   26367   26370   26372   26370   26367   26371   26364
   26370   26372   26375   26376   26370   26372   26375   26383
   26370   26372   26375   26377   26371   26367   26370   26372
   26372   26375   26383   26384   26372   26375   26383   26385
   26372   26375   26383   26386   26372   26375   26377   26378
   26373   26372   26375   26376   26373   26372   26375   26383
   26373   26372   26375   26377   26374   26372   26375   26376
   26374   26372   26375   26383   26374   26372   26375   26377
   26375   26383   26386   26387   26375   26377   26378   26380
   26375   26377   26378   26379   26376   26375   26383   26384
   26376   26375   26383   26385   26376   26375   26383   26386
   26376   26375   26377   26378   26377   26378   26380   26381
   26377   26378   26380   26382   26377   26378   26380   26392
   26377   26375   26383   26384   26377   26375   26383   26385
   26377   26375   26383   26386   26378   26380   26392   26393
   26378   26380   26392   26394   26378   26380   26392   26395
   26379   26378   26380   26381   26379   26378   26380   26382
   26379   26378   26380   26392   26380   26392   26395   26396
   26380   26392   26395   26397   26380   26392   26395   26398
   26381   26380   26392   26393   26381   26380   26392   26394
   26381   26380   26392   26395   26382   26380   26392   26393
   26382   26380   26392   26394   26382   26380   26392   26395
   26383   26375   26377   26378   26383   26386   26387   26389
   26383   26386   26387   26388   26384   26383   26386   26387
   26385   26383   26386   26387   26386   26387   26389   26390
   26386   26387   26389   26391   26386   26387   26389   26429
   26387   26389   26429   26430   26387   26389   26429   26431
   26387   26389   26429   26432   26388   26387   26389   26390
   26388   26387   26389   26391   26388   26387   26389   26429
   26389   26429   26432   26433   26389   26429   26432   26434
   26389   26429   26432   26435   26390   26389   26429   26430
   26390   26389   26429   26431   26390   26389   26429   26432
   26391   26389   26429   26430   26391   26389   26429   26431
   26391   26389   26429   26432   26392   26395   26398   26399
   26392   26395   26398   26400   26392   26395   26398   26401
   26393   26392   26395   26396   26393   26392   26395   26397
   26393   26392   26395   26398   26394   26392   26395   26396
   26394   26392   26395   26397   26394   26392   26395   26398
   26395   26398   26401   26402   26395   26398   26401   26403
   26395   26398   26401   26404   26396   26395   26398   26399
   26396   26395   26398   26400   26396   26395   26398   26401
   26397   26395   26398   26399   26397   26395   26398   26400
   26397   26395   26398   26401   26398   26401   26404   26405
   26398   26401   26404   26406   26398   26401   26404   26407
   26399   26398   26401   26402   26399   26398   26401   26403
   26399   26398   26401   26404   26400   26398   26401   26402
   26400   26398   26401   26403   26400   26398   26401   26404
   26401   26404   26407   26408   26401   26404   26407   26409
   26401   26404   26407   26410   26402   26401   26404   26405
   26402   26401   26404   26406   26402   26401   26404   26407
   26403   26401   26404   26405   26403   26401   26404   26406
   26403   26401   26404   26407   26404   26407   26410   26411
   26404   26407   26410   26412   26404   26407   26410   26413
   26405   26404   26407   26408   26405   26404   26407   26409
   26405   26404   26407   26410   26406   26404   26407   26408
   26406   26404   26407   26409   26406   26404   26407   26410
   26407   26410   26413   26414   26407   26410   26413   26415
   26407   26410   26413   26416   26408   26407   26410   26411
   26408   26407   26410   26412   26408   26407   26410   26413
   26409   26407   26410   26411   26409   26407   26410   26412
   26409   26407   26410   26413   26410   26413   26416   26417
   26410   26413   26416   26418   26410   26413   26416   26419
   26411   26410   26413   26414   26411   26410   26413   26415
   26411   26410   26413   26416   26412   26410   26413   26414
   26412   26410   26413   26415   26412   26410   26413   26416
   26413   26416   26419   26420   26413   26416   26419   26421
   26413   26416   26419   26422   26414   26413   26416   26417
   26414   26413   26416   26418   26414   26413   26416   26419
   26415   26413   26416   26417   26415   26413   26416   26418
   26415   26413   26416   26419   26416   26419   26422   26423
   26416   26419   26422   26424   26416   26419   26422   26425
   26417   26416   26419   26420   26417   26416   26419   26421
   26417   26416   26419   26422   26418   26416   26419   26420
   26418   26416   26419   26421   26418   26416   26419   26422
   26419   26422   26425   26426   26419   26422   26425   26427
   26419   26422   26425   26428   26420   26419   26422   26423
   26420   26419   26422   26424   26420   26419   26422   26425
   26421   26419   26422   26423   26421   26419   26422   26424
   26421   26419   26422   26425   26423   26422   26425   26426
   26423   26422   26425   26427   26423   26422   26425   26428
   26424   26422   26425   26426   26424   26422   26425   26427
   26424   26422   26425   26428   26429   26432   26435   26436
   26429   26432   26435   26437   26429   26432   26435   26438
   26430   26429   26432   26433   26430   26429   26432   26434
   26430   26429   26432   26435   26431   26429   26432   26433
   26431   26429   26432   26434   26431   26429   26432   26435
   26432   26435   26438   26439   26432   26435   26438   26440
   26432   26435   26438   26441   26433   26432   26435   26436
   26433   26432   26435   26437   26433   26432   26435   26438
   26434   26432   26435   26436   26434   26432   26435   26437
   26434   26432   26435   26438   26435   26438   26441   26442
   26435   26438   26441   26443   26435   26438   26441   26444
   26436   26435   26438   26439   26436   26435   26438   26440
   26436   26435   26438   26441   26437   26435   26438   26439
   26437   26435   26438   26440   26437   26435   26438   26441
   26438   26441   26444   26445   26438   26441   26444   26446
   26438   26441   26444   26447   26439   26438   26441   26442
   26439   26438   26441   26443   26439   26438   26441   26444
   26440   26438   26441   26442   26440   26438   26441   26443
   26440   26438   26441   26444   26441   26444   26447   26448
   26441   26444   26447   26449   26441   26444   26447   26450
   26442   26441   26444   26445   26442   26441   26444   26446
   26442   26441   26444   26447   26443   26441   26444   26445
   26443   26441   26444   26446   26443   26441   26444   26447
   26444   26447   26450   26451   26444   26447   26450   26452
   26444   26447   26450   26453   26445   26444   26447   26448
   26445   26444   26447   26449   26445   26444   26447   26450
   26446   26444   26447   26448   26446   26444   26447   26449
   26446   26444   26447   26450   26447   26450   26453   26454
   26447   26450   26453   26455   26447   26450   26453   26456
   26448   26447   26450   26451   26448   26447   26450   26452
   26448   26447   26450   26453   26449   26447   26450   26451
   26449   26447   26450   26452   26449   26447   26450   26453
   26450   26453   26456   26457   26450   26453   26456   26458
   26450   26453   26456   26459   26451   26450   26453   26454
   26451   26450   26453   26455   26451   26450   26453   26456
   26452   26450   26453   26454   26452   26450   26453   26455
   26452   26450   26453   26456   26453   26456   26459   26460
   26453   26456   26459   26461   26453   26456   26459   26462
   26454   26453   26456   26457   26454   26453   26456   26458
   26454   26453   26456   26459   26455   26453   26456   26457
   26455   26453   26456   26458   26455   26453   26456   26459
   26456   26459   26462   26463   26456   26459   26462   26464
   26456   26459   26462   26465   26457   26456   26459   26460
   26457   26456   26459   26461   26457   26456   26459   26462
   26458   26456   26459   26460   26458   26456   26459   26461
   26458   26456   26459   26462   26460   26459   26462   26463
   26460   26459   26462   26464   26460   26459   26462   26465
   26461   26459   26462   26463   26461   26459   26462   26464
   26461   26459   26462   26465   26466   26479   26482   26483
   26466   26479   26482   26484   26466   26479   26482   26489
   26467   26466   26471   26472   26467   26466   26471   26473
   26467   26466   26471   26474   26467   26466   26475   26476
   26467   26466   26475   26477   26467   26466   26475   26478
   26467   26466   26479   26480   26467   26466   26479   26481
   26467   26466   26479   26482   26471   26466   26467   26468
   26471   26466   26467   26469   26471   26466   26467   26470
   26471   26466   26475   26476   26471   26466   26475   26477
   26471   26466   26475   26478   26471   26466   26479   26480
   26471   26466   26479   26481   26471   26466   26479   26482
   26475   26466   26467   26468   26475   26466   26467   26469
   26475   26466   26467   26470   26475   26466   26471   26472
   26475   26466   26471   26473   26475   26466   26471   26474
   26475   26466   26479   26480   26475   26466   26479   26481
   26475   26466   26479   26482   26479   26466   26467   26468
   26479   26466   26467   26469   26479   26466   26467   26470
   26479   26466   26471   26472   26479   26466   26471   26473
   26479   26466   26471   26474   26479   26466   26475   26476
   26479   26466   26475   26477   26479   26466   26475   26478
   26479   26482   26489   26485   26480   26479   26482   26483
   26480   26479   26482   26484   26480   26479   26482   26489
   26481   26479   26482   26483   26481   26479   26482   26484
   26481   26479   26482   26489   26483   26482   26489   26485
   26484   26482   26489   26485   26485   26488   26490   26491
   26485   26488   26490   26492   26485   26488   26490   26493
   26486   26485   26489   26482   26486   26485   26488   26490
   26487   26485   26489   26482   26487   26485   26488   26490
   26488   26485   26489   26482   26488   26490   26493   26494
   26488   26490   26493   26501   26488   26490   26493   26495
   26489   26485   26488   26490   26490   26493   26501   26502
   26490   26493   26501   26503   26490   26493   26501   26504
   26490   26493   26495   26496   26491   26490   26493   26494
   26491   26490   26493   26501   26491   26490   26493   26495
   26492   26490   26493   26494   26492   26490   26493   26501
   26492   26490   26493   26495   26493   26501   26504   26505
   26493   26495   26496   26498   26493   26495   26496   26497
   26494   26493   26501   26502   26494   26493   26501   26503
   26494   26493   26501   26504   26494   26493   26495   26496
   26495   26496   26498   26499   26495   26496   26498   26500
   26495   26496   26498   26510   26495   26493   26501   26502
   26495   26493   26501   26503   26495   26493   26501   26504
   26496   26498   26510   26511   26496   26498   26510   26512
   26496   26498   26510   26513   26497   26496   26498   26499
   26497   26496   26498   26500   26497   26496   26498   26510
   26498   26510   26513   26514   26498   26510   26513   26515
   26498   26510   26513   26516   26499   26498   26510   26511
   26499   26498   26510   26512   26499   26498   26510   26513
   26500   26498   26510   26511   26500   26498   26510   26512
   26500   26498   26510   26513   26501   26493   26495   26496
   26501   26504   26505   26507   26501   26504   26505   26506
   26502   26501   26504   26505   26503   26501   26504   26505
   26504   26505   26507   26508   26504   26505   26507   26509
   26504   26505   26507   26547   26505   26507   26547   26548
   26505   26507   26547   26549   26505   26507   26547   26550
   26506   26505   26507   26508   26506   26505   26507   26509
   26506   26505   26507   26547   26507   26547   26550   26551
   26507   26547   26550   26552   26507   26547   26550   26553
   26508   26507   26547   26548   26508   26507   26547   26549
   26508   26507   26547   26550   26509   26507   26547   26548
   26509   26507   26547   26549   26509   26507   26547   26550
   26510   26513   26516   26517   26510   26513   26516   26518
   26510   26513   26516   26519   26511   26510   26513   26514
   26511   26510   26513   26515   26511   26510   26513   26516
   26512   26510   26513   26514   26512   26510   26513   26515
   26512   26510   26513   26516   26513   26516   26519   26520
   26513   26516   26519   26521   26513   26516   26519   26522
   26514   26513   26516   26517   26514   26513   26516   26518
   26514   26513   26516   26519   26515   26513   26516   26517
   26515   26513   26516   26518   26515   26513   26516   26519
   26516   26519   26522   26523   26516   26519   26522   26524
   26516   26519   26522   26525   26517   26516   26519   26520
   26517   26516   26519   26521   26517   26516   26519   26522
   26518   26516   26519   26520   26518   26516   26519   26521
   26518   26516   26519   26522   26519   26522   26525   26526
   26519   26522   26525   26527   26519   26522   26525   26528
   26520   26519   26522   26523   26520   26519   26522   26524
   26520   26519   26522   26525   26521   26519   26522   26523
   26521   26519   26522   26524   26521   26519   26522   26525
   26522   26525   26528   26529   26522   26525   26528   26530
   26522   26525   26528   26531   26523   26522   26525   26526
   26523   26522   26525   26527   26523   26522   26525   26528
   26524   26522   26525   26526   26524   26522   26525   26527
   26524   26522   26525   26528   26525   26528   26531   26532
   26525   26528   26531   26533   26525   26528   26531   26534
   26526   26525   26528   26529   26526   26525   26528   26530
   26526   26525   26528   26531   26527   26525   26528   26529
   26527   26525   26528   26530   26527   26525   26528   26531
   26528   26531   26534   26535   26528   26531   26534   26536
   26528   26531   26534   26537   26529   26528   26531   26532
   26529   26528   26531   26533   26529   26528   26531   26534
   26530   26528   26531   26532   26530   26528   26531   26533
   26530   26528   26531   26534   26531   26534   26537   26538
   26531   26534   26537   26539   26531   26534   26537   26540
   26532   26531   26534   26535   26532   26531   26534   26536
   26532   26531   26534   26537   26533   26531   26534   26535
   26533   26531   26534   26536   26533   26531   26534   26537
   26534   26537   26540   26541   26534   26537   26540   26542
   26534   26537   26540   26543   26535   26534   26537   26538
   26535   26534   26537   26539   26535   26534   26537   26540
   26536   26534   26537   26538   26536   26534   26537   26539
   26536   26534   26537   26540   26537   26540   26543   26544
   26537   26540   26543   26545   26537   26540   26543   26546
   26538   26537   26540   26541   26538   26537   26540   26542
   26538   26537   26540   26543   26539   26537   26540   26541
   26539   26537   26540   26542   26539   26537   26540   26543
   26541   26540   26543   26544   26541   26540   26543   26545
   26541   26540   26543   26546   26542   26540   26543   26544
   26542   26540   26543   26545   26542   26540   26543   26546
   26547   26550   26553   26554   26547   26550   26553   26555
   26547   26550   26553   26556   26548   26547   26550   26551
   26548   26547   26550   26552   26548   26547   26550   26553
   26549   26547   26550   26551   26549   26547   26550   26552
   26549   26547   26550   26553   26550   26553   26556   26557
   26550   26553   26556   26558   26550   26553   26556   26559
   26551   26550   26553   26554   26551   26550   26553   26555
   26551   26550   26553   26556   26552   26550   26553   26554
   26552   26550   26553   26555   26552   26550   26553   26556
   26553   26556   26559   26560   26553   26556   26559   26561
   26553   26556   26559   26562   26554   26553   26556   26557
   26554   26553   26556   26558   26554   26553   26556   26559
   26555   26553   26556   26557   26555   26553   26556   26558
   26555   26553   26556   26559   26556   26559   26562   26563
   26556   26559   26562   26564   26556   26559   26562   26565
   26557   26556   26559   26560   26557   26556   26559   26561
   26557   26556   26559   26562   26558   26556   26559   26560
   26558   26556   26559   26561   26558   26556   26559   26562
   26559   26562   26565   26566   26559   26562   26565   26567
   26559   26562   26565   26568   26560   26559   26562   26563
   26560   26559   26562   26564   26560   26559   26562   26565
   26561   26559   26562   26563   26561   26559   26562   26564
   26561   26559   26562   26565   26562   26565   26568   26569
   26562   26565   26568   26570   26562   26565   26568   26571
   26563   26562   26565   26566   26563   26562   26565   26567
   26563   26562   26565   26568   26564   26562   26565   26566
   26564   26562   26565   26567   26564   26562   26565   26568
   26565   26568   26571   26572   26565   26568   26571   26573
   26565   26568   26571   26574   26566   26565   26568   26569
   26566   26565   26568   26570   26566   26565   26568   26571
   26567   26565   26568   26569   26567   26565   26568   26570
   26567   26565   26568   26571   26568   26571   26574   26575
   26568   26571   26574   26576   26568   26571   26574   26577
   26569   26568   26571   26572   26569   26568   26571   26573
   26569   26568   26571   26574   26570   26568   26571   26572
   26570   26568   26571   26573   26570   26568   26571   26574
   26571   26574   26577   26578   26571   26574   26577   26579
   26571   26574   26577   26580   26572   26571   26574   26575
   26572   26571   26574   26576   26572   26571   26574   26577
   26573   26571   26574   26575   26573   26571   26574   26576
   26573   26571   26574   26577   26574   26577   26580   26581
   26574   26577   26580   26582   26574   26577   26580   26583
   26575   26574   26577   26578   26575   26574   26577   26579
   26575   26574   26577   26580   26576   26574   26577   26578
   26576   26574   26577   26579   26576   26574   26577   26580
   26578   26577   26580   26581   26578   26577   26580   26582
   26578   26577   26580   26583   26579   26577   26580   26581
   26579   26577   26580   26582   26579   26577   26580   26583
   26584   26597   26600   26601   26584   26597   26600   26602
   26584   26597   26600   26607   26585   26584   26589   26590
   26585   26584   26589   26591   26585   26584   26589   26592
   26585   26584   26593   26594   26585   26584   26593   26595
   26585   26584   26593   26596   26585   26584   26597   26598
   26585   26584   26597   26599   26585   26584   26597   26600
   26589   26584   26585   26586   26589   26584   26585   26587
   26589   26584   26585   26588   26589   26584   26593   26594
   26589   26584   26593   26595   26589   26584   26593   26596
   26589   26584   26597   26598   26589   26584   26597   26599
   26589   26584   26597   26600   26593   26584   26585   26586
   26593   26584   26585   26587   26593   26584   26585   26588
   26593   26584   26589   26590   26593   26584   26589   26591
   26593   26584   26589   26592   26593   26584   26597   26598
   26593   26584   26597   26599   26593   26584   26597   26600
   26597   26584   26585   26586   26597   26584   26585   26587
   26597   26584   26585   26588   26597   26584   26589   26590
   26597   26584   26589   26591   26597   26584   26589   26592
   26597   26584   26593   26594   26597   26584   26593   26595
   26597   26584   26593   26596   26597   26600   26607   26603
   26598   26597   26600   26601   26598   26597   26600   26602
   26598   26597   26600   26607   26599   26597   26600   26601
   26599   26597   26600   26602   26599   26597   26600   26607
   26601   26600   26607   26603   26602   26600   26607   26603
   26603   26606   26608   26609   26603   26606   26608   26610
   26603   26606   26608   26611   26604   26603   26607   26600
   26604   26603   26606   26608   26605   26603   26607   26600
   26605   26603   26606   26608   26606   26603   26607   26600
   26606   26608   26611   26612   26606   26608   26611   26619
   26606   26608   26611   26613   26607   26603   26606   26608
   26608   26611   26619   26620   26608   26611   26619   26621
   26608   26611   26619   26622   26608   26611   26613   26614
   26609   26608   26611   26612   26609   26608   26611   26619
   26609   26608   26611   26613   26610   26608   26611   26612
   26610   26608   26611   26619   26610   26608   26611   26613
   26611   26619   26622   26623   26611   26613   26614   26616
   26611   26613   26614   26615   26612   26611   26619   26620
   26612   26611   26619   26621   26612   26611   26619   26622
   26612   26611   26613   26614   26613   26614   26616   26617
   26613   26614   26616   26618   26613   26614   26616   26628
   26613   26611   26619   26620   26613   26611   26619   26621
   26613   26611   26619   26622   26614   26616   26628   26629
   26614   26616   26628   26630   26614   26616   26628   26631
   26615   26614   26616   26617   26615   26614   26616   26618
   26615   26614   26616   26628   26616   26628   26631   26632
   26616   26628   26631   26633   26616   26628   26631   26634
   26617   26616   26628   26629   26617   26616   26628   26630
   26617   26616   26628   26631   26618   26616   26628   26629
   26618   26616   26628   26630   26618   26616   26628   26631
   26619   26611   26613   26614   26619   26622   26623   26625
   26619   26622   26623   26624   26620   26619   26622   26623
   26621   26619   26622   26623   26622   26623   26625   26626
   26622   26623   26625   26627   26622   26623   26625   26665
   26623   26625   26665   26666   26623   26625   26665   26667
   26623   26625   26665   26668   26624   26623   26625   26626
   26624   26623   26625   26627   26624   26623   26625   26665
   26625   26665   26668   26669   26625   26665   26668   26670
   26625   26665   26668   26671   26626   26625   26665   26666
   26626   26625   26665   26667   26626   26625   26665   26668
   26627   26625   26665   26666   26627   26625   26665   26667
   26627   26625   26665   26668   26628   26631   26634   26635
   26628   26631   26634   26636   26628   26631   26634   26637
   26629   26628   26631   26632   26629   26628   26631   26633
   26629   26628   26631   26634   26630   26628   26631   26632
   26630   26628   26631   26633   26630   26628   26631   26634
   26631   26634   26637   26638   26631   26634   26637   26639
   26631   26634   26637   26640   26632   26631   26634   26635
   26632   26631   26634   26636   26632   26631   26634   26637
   26633   26631   26634   26635   26633   26631   26634   26636
   26633   26631   26634   26637   26634   26637   26640   26641
   26634   26637   26640   26642   26634   26637   26640   26643
   26635   26634   26637   26638   26635   26634   26637   26639
   26635   26634   26637   26640   26636   26634   26637   26638
   26636   26634   26637   26639   26636   26634   26637   26640
   26637   26640   26643   26644   26637   26640   26643   26645
   26637   26640   26643   26646   26638   26637   26640   26641
   26638   26637   26640   26642   26638   26637   26640   26643
   26639   26637   26640   26641   26639   26637   26640   26642
   26639   26637   26640   26643   26640   26643   26646   26647
   26640   26643   26646   26648   26640   26643   26646   26649
   26641   26640   26643   26644   26641   26640   26643   26645
   26641   26640   26643   26646   26642   26640   26643   26644
   26642   26640   26643   26645   26642   26640   26643   26646
   26643   26646   26649   26650   26643   26646   26649   26651
   26643   26646   26649   26652   26644   26643   26646   26647
   26644   26643   26646   26648   26644   26643   26646   26649
   26645   26643   26646   26647   26645   26643   26646   26648
   26645   26643   26646   26649   26646   26649   26652   26653
   26646   26649   26652   26654   26646   26649   26652   26655
   26647   26646   26649   26650   26647   26646   26649   26651
   26647   26646   26649   26652   26648   26646   26649   26650
   26648   26646   26649   26651   26648   26646   26649   26652
   26649   26652   26655   26656   26649   26652   26655   26657
   26649   26652   26655   26658   26650   26649   26652   26653
   26650   26649   26652   26654   26650   26649   26652   26655
   26651   26649   26652   26653   26651   26649   26652   26654
   26651   26649   26652   26655   26652   26655   26658   26659
   26652   26655   26658   26660   26652   26655   26658   26661
   26653   26652   26655   26656   26653   26652   26655   26657
   26653   26652   26655   26658   26654   26652   26655   26656
   26654   26652   26655   26657   26654   26652   26655   26658
   26655   26658   26661   26662   26655   26658   26661   26663
   26655   26658   26661   26664   26656   26655   26658   26659
   26656   26655   26658   26660   26656   26655   26658   26661
   26657   26655   26658   26659   26657   26655   26658   26660
   26657   26655   26658   26661   26659   26658   26661   26662
   26659   26658   26661   26663   26659   26658   26661   26664
   26660   26658   26661   26662   26660   26658   26661   26663
   26660   26658   26661   26664   26665   26668   26671   26672
   26665   26668   26671   26673   26665   26668   26671   26674
   26666   26665   26668   26669   26666   26665   26668   26670
   26666   26665   26668   26671   26667   26665   26668   26669
   26667   26665   26668   26670   26667   26665   26668   26671
   26668   26671   26674   26675   26668   26671   26674   26676
   26668   26671   26674   26677   26669   26668   26671   26672
   26669   26668   26671   26673   26669   26668   26671   26674
   26670   26668   26671   26672   26670   26668   26671   26673
   26670   26668   26671   26674   26671   26674   26677   26678
   26671   26674   26677   26679   26671   26674   26677   26680
   26672   26671   26674   26675   26672   26671   26674   26676
   26672   26671   26674   26677   26673   26671   26674   26675
   26673   26671   26674   26676   26673   26671   26674   26677
   26674   26677   26680   26681   26674   26677   26680   26682
   26674   26677   26680   26683   26675   26674   26677   26678
   26675   26674   26677   26679   26675   26674   26677   26680
   26676   26674   26677   26678   26676   26674   26677   26679
   26676   26674   26677   26680   26677   26680   26683   26684
   26677   26680   26683   26685   26677   26680   26683   26686
   26678   26677   26680   26681   26678   26677   26680   26682
   26678   26677   26680   26683   26679   26677   26680   26681
   26679   26677   26680   26682   26679   26677   26680   26683
   26680   26683   26686   26687   26680   26683   26686   26688
   26680   26683   26686   26689   26681   26680   26683   26684
   26681   26680   26683   26685   26681   26680   26683   26686
   26682   26680   26683   26684   26682   26680   26683   26685
   26682   26680   26683   26686   26683   26686   26689   26690
   26683   26686   26689   26691   26683   26686   26689   26692
   26684   26683   26686   26687   26684   26683   26686   26688
   26684   26683   26686   26689   26685   26683   26686   26687
   26685   26683   26686   26688   26685   26683   26686   26689
   26686   26689   26692   26693   26686   26689   26692   26694
   26686   26689   26692   26695   26687   26686   26689   26690
   26687   26686   26689   26691   26687   26686   26689   26692
   26688   26686   26689   26690   26688   26686   26689   26691
   26688   26686   26689   26692   26689   26692   26695   26696
   26689   26692   26695   26697   26689   26692   26695   26698
   26690   26689   26692   26693   26690   26689   26692   26694
   26690   26689   26692   26695   26691   26689   26692   26693
   26691   26689   26692   26694   26691   26689   26692   26695
   26692   26695   26698   26699   26692   26695   26698   26700
   26692   26695   26698   26701   26693   26692   26695   26696
   26693   26692   26695   26697   26693   26692   26695   26698
   26694   26692   26695   26696   26694   26692   26695   26697
   26694   26692   26695   26698   26696   26695   26698   26699
   26696   26695   26698   26700   26696   26695   26698   26701
   26697   26695   26698   26699   26697   26695   26698   26700
   26697   26695   26698   26701   26702   26715   26718   26719
   26702   26715   26718   26720   26702   26715   26718   26725
   26703   26702   26707   26708   26703   26702   26707   26709
   26703   26702   26707   26710   26703   26702   26711   26712
   26703   26702   26711   26713   26703   26702   26711   26714
   26703   26702   26715   26716   26703   26702   26715   26717
   26703   26702   26715   26718   26707   26702   26703   26704
   26707   26702   26703   26705   26707   26702   26703   26706
   26707   26702   26711   26712   26707   26702   26711   26713
   26707   26702   26711   26714   26707   26702   26715   26716
   26707   26702   26715   26717   26707   26702   26715   26718
   26711   26702   26703   26704   26711   26702   26703   26705
   26711   26702   26703   26706   26711   26702   26707   26708
   26711   26702   26707   26709   26711   26702   26707   26710
   26711   26702   26715   26716   26711   26702   26715   26717
   26711   26702   26715   26718   26715   26702   26703   26704
   26715   26702   26703   26705   26715   26702   26703   26706
   26715   26702   26707   26708   26715   26702   26707   26709
   26715   26702   26707   26710   26715   26702   26711   26712
   26715   26702   26711   26713   26715   26702   26711   26714
   26715   26718   26725   26721   26716   26715   26718   26719
   26716   26715   26718   26720   26716   26715   26718   26725
   26717   26715   26718   26719   26717   26715   26718   26720
   26717   26715   26718   26725   26719   26718   26725   26721
   26720   26718   26725   26721   26721   26724   26726   26727
   26721   26724   26726   26728   26721   26724   26726   26729
   26722   26721   26725   26718   26722   26721   26724   26726
   26723   26721   26725   26718   26723   26721   26724   26726
   26724   26721   26725   26718   26724   26726   26729   26730
   26724   26726   26729   26737   26724   26726   26729   26731
   26725   26721   26724   26726   26726   26729   26737   26738
   26726   26729   26737   26739   26726   26729   26737   26740
   26726   26729   26731   26732   26727   26726   26729   26730
   26727   26726   26729   26737   26727   26726   26729   26731
   26728   26726   26729   26730   26728   26726   26729   26737
   26728   26726   26729   26731   26729   26737   26740   26741
   26729   26731   26732   26734   26729   26731   26732   26733
   26730   26729   26737   26738   26730   26729   26737   26739
   26730   26729   26737   26740   26730   26729   26731   26732
   26731   26732   26734   26735   26731   26732   26734   26736
   26731   26732   26734   26746   26731   26729   26737   26738
   26731   26729   26737   26739   26731   26729   26737   26740
   26732   26734   26746   26747   26732   26734   26746   26748
   26732   26734   26746   26749   26733   26732   26734   26735
   26733   26732   26734   26736   26733   26732   26734   26746
   26734   26746   26749   26750   26734   26746   26749   26751
   26734   26746   26749   26752   26735   26734   26746   26747
   26735   26734   26746   26748   26735   26734   26746   26749
   26736   26734   26746   26747   26736   26734   26746   26748
   26736   26734   26746   26749   26737   26729   26731   26732
   26737   26740   26741   26743   26737   26740   26741   26742
   26738   26737   26740   26741   26739   26737   26740   26741
   26740   26741   26743   26744   26740   26741   26743   26745
   26740   26741   26743   26783   26741   26743   26783   26784
   26741   26743   26783   26785   26741   26743   26783   26786
   26742   26741   26743   26744   26742   26741   26743   26745
   26742   26741   26743   26783   26743   26783   26786   26787
   26743   26783   26786   26788   26743   26783   26786   26789
   26744   26743   26783   26784   26744   26743   26783   26785
   26744   26743   26783   26786   26745   26743   26783   26784
   26745   26743   26783   26785   26745   26743   26783   26786
   26746   26749   26752   26753   26746   26749   26752   26754
   26746   26749   26752   26755   26747   26746   26749   26750
   26747   26746   26749   26751   26747   26746   26749   26752
   26748   26746   26749   26750   26748   26746   26749   26751
   26748   26746   26749   26752   26749   26752   26755   26756
   26749   26752   26755   26757   26749   26752   26755   26758
   26750   26749   26752   26753   26750   26749   26752   26754
   26750   26749   26752   26755   26751   26749   26752   26753
   26751   26749   26752   26754   26751   26749   26752   26755
   26752   26755   26758   26759   26752   26755   26758   26760
   26752   26755   26758   26761   26753   26752   26755   26756
   26753   26752   26755   26757   26753   26752   26755   26758
   26754   26752   26755   26756   26754   26752   26755   26757
   26754   26752   26755   26758   26755   26758   26761   26762
   26755   26758   26761   26763   26755   26758   26761   26764
   26756   26755   26758   26759   26756   26755   26758   26760
   26756   26755   26758   26761   26757   26755   26758   26759
   26757   26755   26758   26760   26757   26755   26758   26761
   26758   26761   26764   26765   26758   26761   26764   26766
   26758   26761   26764   26767   26759   26758   26761   26762
   26759   26758   26761   26763   26759   26758   26761   26764
   26760   26758   26761   26762   26760   26758   26761   26763
   26760   26758   26761   26764   26761   26764   26767   26768
   26761   26764   26767   26769   26761   26764   26767   26770
   26762   26761   26764   26765   26762   26761   26764   26766
   26762   26761   26764   26767   26763   26761   26764   26765
   26763   26761   26764   26766   26763   26761   26764   26767
   26764   26767   26770   26771   26764   26767   26770   26772
   26764   26767   26770   26773   26765   26764   26767   26768
   26765   26764   26767   26769   26765   26764   26767   26770
   26766   26764   26767   26768   26766   26764   26767   26769
   26766   26764   26767   26770   26767   26770   26773   26774
   26767   26770   26773   26775   26767   26770   26773   26776
   26768   26767   26770   26771   26768   26767   26770   26772
   26768   26767   26770   26773   26769   26767   26770   26771
   26769   26767   26770   26772   26769   26767   26770   26773
   26770   26773   26776   26777   26770   26773   26776   26778
   26770   26773   26776   26779   26771   26770   26773   26774
   26771   26770   26773   26775   26771   26770   26773   26776
   26772   26770   26773   26774   26772   26770   26773   26775
   26772   26770   26773   26776   26773   26776   26779   26780
   26773   26776   26779   26781   26773   26776   26779   26782
   26774   26773   26776   26777   26774   26773   26776   26778
   26774   26773   26776   26779   26775   26773   26776   26777
   26775   26773   26776   26778   26775   26773   26776   26779
   26777   26776   26779   26780   26777   26776   26779   26781
   26777   26776   26779   26782   26778   26776   26779   26780
   26778   26776   26779   26781   26778   26776   26779   26782
   26783   26786   26789   26790   26783   26786   26789   26791
   26783   26786   26789   26792   26784   26783   26786   26787
   26784   26783   26786   26788   26784   26783   26786   26789
   26785   26783   26786   26787   26785   26783   26786   26788
   26785   26783   26786   26789   26786   26789   26792   26793
   26786   26789   26792   26794   26786   26789   26792   26795
   26787   26786   26789   26790   26787   26786   26789   26791
   26787   26786   26789   26792   26788   26786   26789   26790
   26788   26786   26789   26791   26788   26786   26789   26792
   26789   26792   26795   26796   26789   26792   26795   26797
   26789   26792   26795   26798   26790   26789   26792   26793
   26790   26789   26792   26794   26790   26789   26792   26795
   26791   26789   26792   26793   26791   26789   26792   26794
   26791   26789   26792   26795   26792   26795   26798   26799
   26792   26795   26798   26800   26792   26795   26798   26801
   26793   26792   26795   26796   26793   26792   26795   26797
   26793   26792   26795   26798   26794   26792   26795   26796
   26794   26792   26795   26797   26794   26792   26795   26798
   26795   26798   26801   26802   26795   26798   26801   26803
   26795   26798   26801   26804   26796   26795   26798   26799
   26796   26795   26798   26800   26796   26795   26798   26801
   26797   26795   26798   26799   26797   26795   26798   26800
   26797   26795   26798   26801   26798   26801   26804   26805
   26798   26801   26804   26806   26798   26801   26804   26807
   26799   26798   26801   26802   26799   26798   26801   26803
   26799   26798   26801   26804   26800   26798   26801   26802
   26800   26798   26801   26803   26800   26798   26801   26804
   26801   26804   26807   26808   26801   26804   26807   26809
   26801   26804   26807   26810   26802   26801   26804   26805
   26802   26801   26804   26806   26802   26801   26804   26807
   26803   26801   26804   26805   26803   26801   26804   26806
   26803   26801   26804   26807   26804   26807   26810   26811
   26804   26807   26810   26812   26804   26807   26810   26813
   26805   26804   26807   26808   26805   26804   26807   26809
   26805   26804   26807   26810   26806   26804   26807   26808
   26806   26804   26807   26809   26806   26804   26807   26810
   26807   26810   26813   26814   26807   26810   26813   26815
   26807   26810   26813   26816   26808   26807   26810   26811
   26808   26807   26810   26812   26808   26807   26810   26813
   26809   26807   26810   26811   26809   26807   26810   26812
   26809   26807   26810   26813   26810   26813   26816   26817
   26810   26813   26816   26818   26810   26813   26816   26819
   26811   26810   26813   26814   26811   26810   26813   26815
   26811   26810   26813   26816   26812   26810   26813   26814
   26812   26810   26813   26815   26812   26810   26813   26816
   26814   26813   26816   26817   26814   26813   26816   26818
   26814   26813   26816   26819   26815   26813   26816   26817
   26815   26813   26816   26818   26815   26813   26816   26819
   26820   26833   26836   26837   26820   26833   26836   26838
   26820   26833   26836   26843   26821   26820   26825   26826
   26821   26820   26825   26827   26821   26820   26825   26828
   26821   26820   26829   26830   26821   26820   26829   26831
   26821   26820   26829   26832   26821   26820   26833   26834
   26821   26820   26833   26835   26821   26820   26833   26836
   26825   26820   26821   26822   26825   26820   26821   26823
   26825   26820   26821   26824   26825   26820   26829   26830
   26825   26820   26829   26831   26825   26820   26829   26832
   26825   26820   26833   26834   26825   26820   26833   26835
   26825   26820   26833   26836   26829   26820   26821   26822
   26829   26820   26821   26823   26829   26820   26821   26824
   26829   26820   26825   26826   26829   26820   26825   26827
   26829   26820   26825   26828   26829   26820   26833   26834
   26829   26820   26833   26835   26829   26820   26833   26836
   26833   26820   26821   26822   26833   26820   26821   26823
   26833   26820   26821   26824   26833   26820   26825   26826
   26833   26820   26825   26827   26833   26820   26825   26828
   26833   26820   26829   26830   26833   26820   26829   26831
   26833   26820   26829   26832   26833   26836   26843   26839
   26834   26833   26836   26837   26834   26833   26836   26838
   26834   26833   26836   26843   26835   26833   26836   26837
   26835   26833   26836   26838   26835   26833   26836   26843
   26837   26836   26843   26839   26838   26836   26843   26839
   26839   26842   26844   26845   26839   26842   26844   26846
   26839   26842   26844   26847   26840   26839   26843   26836
   26840   26839   26842   26844   26841   26839   26843   26836
   26841   26839   26842   26844   26842   26839   26843   26836
   26842   26844   26847   26848   26842   26844   26847   26855
   26842   26844   26847   26849   26843   26839   26842   26844
   26844   26847   26855   26856   26844   26847   26855   26857
   26844   26847   26855   26858   26844   26847   26849   26850
   26845   26844   26847   26848   26845   26844   26847   26855
   26845   26844   26847   26849   26846   26844   26847   26848
   26846   26844   26847   26855   26846   26844   26847   26849
   26847   26855   26858   26859   26847   26849   26850   26852
   26847   26849   26850   26851   26848   26847   26855   26856
   26848   26847   26855   26857   26848   26847   26855   26858
   26848   26847   26849   26850   26849   26850   26852   26853
   26849   26850   26852   26854   26849   26850   26852   26864
   26849   26847   26855   26856   26849   26847   26855   26857
   26849   26847   26855   26858   26850   26852   26864   26865
   26850   26852   26864   26866   26850   26852   26864   26867
   26851   26850   26852   26853   26851   26850   26852   26854
   26851   26850   26852   26864   26852   26864   26867   26868
   26852   26864   26867   26869   26852   26864   26867   26870
   26853   26852   26864   26865   26853   26852   26864   26866
   26853   26852   26864   26867   26854   26852   26864   26865
   26854   26852   26864   26866   26854   26852   26864   26867
   26855   26847   26849   26850   26855   26858   26859   26861
   26855   26858   26859   26860   26856   26855   26858   26859
   26857   26855   26858   26859   26858   26859   26861   26862
   26858   26859   26861   26863   26858   26859   26861   26901
   26859   26861   26901   26902   26859   26861   26901   26903
   26859   26861   26901   26904   26860   26859   26861   26862
   26860   26859   26861   26863   26860   26859   26861   26901
   26861   26901   26904   26905   26861   26901   26904   26906
   26861   26901   26904   26907   26862   26861   26901   26902
   26862   26861   26901   26903   26862   26861   26901   26904
   26863   26861   26901   26902   26863   26861   26901   26903
   26863   26861   26901   26904   26864   26867   26870   26871
   26864   26867   26870   26872   26864   26867   26870   26873
   26865   26864   26867   26868   26865   26864   26867   26869
   26865   26864   26867   26870   26866   26864   26867   26868
   26866   26864   26867   26869   26866   26864   26867   26870
   26867   26870   26873   26874   26867   26870   26873   26875
   26867   26870   26873   26876   26868   26867   26870   26871
   26868   26867   26870   26872   26868   26867   26870   26873
   26869   26867   26870   26871   26869   26867   26870   26872
   26869   26867   26870   26873   26870   26873   26876   26877
   26870   26873   26876   26878   26870   26873   26876   26879
   26871   26870   26873   26874   26871   26870   26873   26875
   26871   26870   26873   26876   26872   26870   26873   26874
   26872   26870   26873   26875   26872   26870   26873   26876
   26873   26876   26879   26880   26873   26876   26879   26881
   26873   26876   26879   26882   26874   26873   26876   26877
   26874   26873   26876   26878   26874   26873   26876   26879
   26875   26873   26876   26877   26875   26873   26876   26878
   26875   26873   26876   26879   26876   26879   26882   26883
   26876   26879   26882   26884   26876   26879   26882   26885
   26877   26876   26879   26880   26877   26876   26879   26881
   26877   26876   26879   26882   26878   26876   26879   26880
   26878   26876   26879   26881   26878   26876   26879   26882
   26879   26882   26885   26886   26879   26882   26885   26887
   26879   26882   26885   26888   26880   26879   26882   26883
   26880   26879   26882   26884   26880   26879   26882   26885
   26881   26879   26882   26883   26881   26879   26882   26884
   26881   26879   26882   26885   26882   26885   26888   26889
   26882   26885   26888   26890   26882   26885   26888   26891
   26883   26882   26885   26886   26883   26882   26885   26887
   26883   26882   26885   26888   26884   26882   26885   26886
   26884   26882   26885   26887   26884   26882   26885   26888
   26885   26888   26891   26892   26885   26888   26891   26893
   26885   26888   26891   26894   26886   26885   26888   26889
   26886   26885   26888   26890   26886   26885   26888   26891
   26887   26885   26888   26889   26887   26885   26888   26890
   26887   26885   26888   26891   26888   26891   26894   26895
   26888   26891   26894   26896   26888   26891   26894   26897
   26889   26888   26891   26892   26889   26888   26891   26893
   26889   26888   26891   26894   26890   26888   26891   26892
   26890   26888   26891   26893   26890   26888   26891   26894
   26891   26894   26897   26898   26891   26894   26897   26899
   26891   26894   26897   26900   26892   26891   26894   26895
   26892   26891   26894   26896   26892   26891   26894   26897
   26893   26891   26894   26895   26893   26891   26894   26896
   26893   26891   26894   26897   26895   26894   26897   26898
   26895   26894   26897   26899   26895   26894   26897   26900
   26896   26894   26897   26898   26896   26894   26897   26899
   26896   26894   26897   26900   26901   26904   26907   26908
   26901   26904   26907   26909   26901   26904   26907   26910
   26902   26901   26904   26905   26902   26901   26904   26906
   26902   26901   26904   26907   26903   26901   26904   26905
   26903   26901   26904   26906   26903   26901   26904   26907
   26904   26907   26910   26911   26904   26907   26910   26912
   26904   26907   26910   26913   26905   26904   26907   26908
   26905   26904   26907   26909   26905   26904   26907   26910
   26906   26904   26907   26908   26906   26904   26907   26909
   26906   26904   26907   26910   26907   26910   26913   26914
   26907   26910   26913   26915   26907   26910   26913   26916
   26908   26907   26910   26911   26908   26907   26910   26912
   26908   26907   26910   26913   26909   26907   26910   26911
   26909   26907   26910   26912   26909   26907   26910   26913
   26910   26913   26916   26917   26910   26913   26916   26918
   26910   26913   26916   26919   26911   26910   26913   26914
   26911   26910   26913   26915   26911   26910   26913   26916
   26912   26910   26913   26914   26912   26910   26913   26915
   26912   26910   26913   26916   26913   26916   26919   26920
   26913   26916   26919   26921   26913   26916   26919   26922
   26914   26913   26916   26917   26914   26913   26916   26918
   26914   26913   26916   26919   26915   26913   26916   26917
   26915   26913   26916   26918   26915   26913   26916   26919
   26916   26919   26922   26923   26916   26919   26922   26924
   26916   26919   26922   26925   26917   26916   26919   26920
   26917   26916   26919   26921   26917   26916   26919   26922
   26918   26916   26919   26920   26918   26916   26919   26921
   26918   26916   26919   26922   26919   26922   26925   26926
   26919   26922   26925   26927   26919   26922   26925   26928
   26920   26919   26922   26923   26920   26919   26922   26924
   26920   26919   26922   26925   26921   26919   26922   26923
   26921   26919   26922   26924   26921   26919   26922   26925
   26922   26925   26928   26929   26922   26925   26928   26930
   26922   26925   26928   26931   26923   26922   26925   26926
   26923   26922   26925   26927   26923   26922   26925   26928
   26924   26922   26925   26926   26924   26922   26925   26927
   26924   26922   26925   26928   26925   26928   26931   26932
   26925   26928   26931   26933   26925   26928   26931   26934
   26926   26925   26928   26929   26926   26925   26928   26930
   26926   26925   26928   26931   26927   26925   26928   26929
   26927   26925   26928   26930   26927   26925   26928   26931
   26928   26931   26934   26935   26928   26931   26934   26936
   26928   26931   26934   26937   26929   26928   26931   26932
   26929   26928   26931   26933   26929   26928   26931   26934
   26930   26928   26931   26932   26930   26928   26931   26933
   26930   26928   26931   26934   26932   26931   26934   26935
   26932   26931   26934   26936   26932   26931   26934   26937
   26933   26931   26934   26935   26933   26931   26934   26936
   26933   26931   26934   26937   26938   26951   26954   26955
   26938   26951   26954   26956   26938   26951   26954   26961
   26939   26938   26943   26944   26939   26938   26943   26945
   26939   26938   26943   26946   26939   26938   26947   26948
   26939   26938   26947   26949   26939   26938   26947   26950
   26939   26938   26951   26952   26939   26938   26951   26953
   26939   26938   26951   26954   26943   26938   26939   26940
   26943   26938   26939   26941   26943   26938   26939   26942
   26943   26938   26947   26948   26943   26938   26947   26949
   26943   26938   26947   26950   26943   26938   26951   26952
   26943   26938   26951   26953   26943   26938   26951   26954
   26947   26938   26939   26940   26947   26938   26939   26941
   26947   26938   26939   26942   26947   26938   26943   26944
   26947   26938   26943   26945   26947   26938   26943   26946
   26947   26938   26951   26952   26947   26938   26951   26953
   26947   26938   26951   26954   26951   26938   26939   26940
   26951   26938   26939   26941   26951   26938   26939   26942
   26951   26938   26943   26944   26951   26938   26943   26945
   26951   26938   26943   26946   26951   26938   26947   26948
   26951   26938   26947   26949   26951   26938   26947   26950
   26951   26954   26961   26957   26952   26951   26954   26955
   26952   26951   26954   26956   26952   26951   26954   26961
   26953   26951   26954   26955   26953   26951   26954   26956
   26953   26951   26954   26961   26955   26954   26961   26957
   26956   26954   26961   26957   26957   26960   26962   26963
   26957   26960   26962   26964   26957   26960   26962   26965
   26958   26957   26961   26954   26958   26957   26960   26962
   26959   26957   26961   26954   26959   26957   26960   26962
   26960   26957   26961   26954   26960   26962   26965   26966
   26960   26962   26965   26973   26960   26962   26965   26967
   26961   26957   26960   26962   26962   26965   26973   26974
   26962   26965   26973   26975   26962   26965   26973   26976
   26962   26965   26967   26968   26963   26962   26965   26966
   26963   26962   26965   26973   26963   26962   26965   26967
   26964   26962   26965   26966   26964   26962   26965   26973
   26964   26962   26965   26967   26965   26973   26976   26977
   26965   26967   26968   26970   26965   26967   26968   26969
   26966   26965   26973   26974   26966   26965   26973   26975
   26966   26965   26973   26976   26966   26965   26967   26968
   26967   26968   26970   26971   26967   26968   26970   26972
   26967   26968   26970   26982   26967   26965   26973   26974
   26967   26965   26973   26975   26967   26965   26973   26976
   26968   26970   26982   26983   26968   26970   26982   26984
   26968   26970   26982   26985   26969   26968   26970   26971
   26969   26968   26970   26972   26969   26968   26970   26982
   26970   26982   26985   26986   26970   26982   26985   26987
   26970   26982   26985   26988   26971   26970   26982   26983
   26971   26970   26982   26984   26971   26970   26982   26985
   26972   26970   26982   26983   26972   26970   26982   26984
   26972   26970   26982   26985   26973   26965   26967   26968
   26973   26976   26977   26979   26973   26976   26977   26978
   26974   26973   26976   26977   26975   26973   26976   26977
   26976   26977   26979   26980   26976   26977   26979   26981
   26976   26977   26979   27019   26977   26979   27019   27020
   26977   26979   27019   27021   26977   26979   27019   27022
   26978   26977   26979   26980   26978   26977   26979   26981
   26978   26977   26979   27019   26979   27019   27022   27023
   26979   27019   27022   27024   26979   27019   27022   27025
   26980   26979   27019   27020   26980   26979   27019   27021
   26980   26979   27019   27022   26981   26979   27019   27020
   26981   26979   27019   27021   26981   26979   27019   27022
   26982   26985   26988   26989   26982   26985   26988   26990
   26982   26985   26988   26991   26983   26982   26985   26986
   26983   26982   26985   26987   26983   26982   26985   26988
   26984   26982   26985   26986   26984   26982   26985   26987
   26984   26982   26985   26988   26985   26988   26991   26992
   26985   26988   26991   26993   26985   26988   26991   26994
   26986   26985   26988   26989   26986   26985   26988   26990
   26986   26985   26988   26991   26987   26985   26988   26989
   26987   26985   26988   26990   26987   26985   26988   26991
   26988   26991   26994   26995   26988   26991   26994   26996
   26988   26991   26994   26997   26989   26988   26991   26992
   26989   26988   26991   26993   26989   26988   26991   26994
   26990   26988   26991   26992   26990   26988   26991   26993
   26990   26988   26991   26994   26991   26994   26997   26998
   26991   26994   26997   26999   26991   26994   26997   27000
   26992   26991   26994   26995   26992   26991   26994   26996
   26992   26991   26994   26997   26993   26991   26994   26995
   26993   26991   26994   26996   26993   26991   26994   26997
   26994   26997   27000   27001   26994   26997   27000   27002
   26994   26997   27000   27003   26995   26994   26997   26998
   26995   26994   26997   26999   26995   26994   26997   27000
   26996   26994   26997   26998   26996   26994   26997   26999
   26996   26994   26997   27000   26997   27000   27003   27004
   26997   27000   27003   27005   26997   27000   27003   27006
   26998   26997   27000   27001   26998   26997   27000   27002
   26998   26997   27000   27003   26999   26997   27000   27001
   26999   26997   27000   27002   26999   26997   27000   27003
   27000   27003   27006   27007   27000   27003   27006   27008
   27000   27003   27006   27009   27001   27000   27003   27004
   27001   27000   27003   27005   27001   27000   27003   27006
   27002   27000   27003   27004   27002   27000   27003   27005
   27002   27000   27003   27006   27003   27006   27009   27010
   27003   27006   27009   27011   27003   27006   27009   27012
   27004   27003   27006   27007   27004   27003   27006   27008
   27004   27003   27006   27009   27005   27003   27006   27007
   27005   27003   27006   27008   27005   27003   27006   27009
   27006   27009   27012   27013   27006   27009   27012   27014
   27006   27009   27012   27015   27007   27006   27009   27010
   27007   27006   27009   27011   27007   27006   27009   27012
   27008   27006   27009   27010   27008   27006   27009   27011
   27008   27006   27009   27012   27009   27012   27015   27016
   27009   27012   27015   27017   27009   27012   27015   27018
   27010   27009   27012   27013   27010   27009   27012   27014
   27010   27009   27012   27015   27011   27009   27012   27013
   27011   27009   27012   27014   27011   27009   27012   27015
   27013   27012   27015   27016   27013   27012   27015   27017
   27013   27012   27015   27018   27014   27012   27015   27016
   27014   27012   27015   27017   27014   27012   27015   27018
   27019   27022   27025   27026   27019   27022   27025   27027
   27019   27022   27025   27028   27020   27019   27022   27023
   27020   27019   27022   27024   27020   27019   27022   27025
   27021   27019   27022   27023   27021   27019   27022   27024
   27021   27019   27022   27025   27022   27025   27028   27029
   27022   27025   27028   27030   27022   27025   27028   27031
   27023   27022   27025   27026   27023   27022   27025   27027
   27023   27022   27025   27028   27024   27022   27025   27026
   27024   27022   27025   27027   27024   27022   27025   27028
   27025   27028   27031   27032   27025   27028   27031   27033
   27025   27028   27031   27034   27026   27025   27028   27029
   27026   27025   27028   27030   27026   27025   27028   27031
   27027   27025   27028   27029   27027   27025   27028   27030
   27027   27025   27028   27031   27028   27031   27034   27035
   27028   27031   27034   27036   27028   27031   27034   27037
   27029   27028   27031   27032   27029   27028   27031   27033
   27029   27028   27031   27034   27030   27028   27031   27032
   27030   27028   27031   27033   27030   27028   27031   27034
   27031   27034   27037   27038   27031   27034   27037   27039
   27031   27034   27037   27040   27032   27031   27034   27035
   27032   27031   27034   27036   27032   27031   27034   27037
   27033   27031   27034   27035   27033   27031   27034   27036
   27033   27031   27034   27037   27034   27037   27040   27041
   27034   27037   27040   27042   27034   27037   27040   27043
   27035   27034   27037   27038   27035   27034   27037   27039
   27035   27034   27037   27040   27036   27034   27037   27038
   27036   27034   27037   27039   27036   27034   27037   27040
   27037   27040   27043   27044   27037   27040   27043   27045
   27037   27040   27043   27046   27038   27037   27040   27041
   27038   27037   27040   27042   27038   27037   27040   27043
   27039   27037   27040   27041   27039   27037   27040   27042
   27039   27037   27040   27043   27040   27043   27046   27047
   27040   27043   27046   27048   27040   27043   27046   27049
   27041   27040   27043   27044   27041   27040   27043   27045
   27041   27040   27043   27046   27042   27040   27043   27044
   27042   27040   27043   27045   27042   27040   27043   27046
   27043   27046   27049   27050   27043   27046   27049   27051
   27043   27046   27049   27052   27044   27043   27046   27047
   27044   27043   27046   27048   27044   27043   27046   27049
   27045   27043   27046   27047   27045   27043   27046   27048
   27045   27043   27046   27049   27046   27049   27052   27053
   27046   27049   27052   27054   27046   27049   27052   27055
   27047   27046   27049   27050   27047   27046   27049   27051
   27047   27046   27049   27052   27048   27046   27049   27050
   27048   27046   27049   27051   27048   27046   27049   27052
   27050   27049   27052   27053   27050   27049   27052   27054
   27050   27049   27052   27055   27051   27049   27052   27053
   27051   27049   27052   27054   27051   27049   27052   27055
   27056   27069   27072   27073   27056   27069   27072   27074
   27056   27069   27072   27079   27057   27056   27061   27062
   27057   27056   27061   27063   27057   27056   27061   27064
   27057   27056   27065   27066   27057   27056   27065   27067
   27057   27056   27065   27068   27057   27056   27069   27070
   27057   27056   27069   27071   27057   27056   27069   27072
   27061   27056   27057   27058   27061   27056   27057   27059
   27061   27056   27057   27060   27061   27056   27065   27066
   27061   27056   27065   27067   27061   27056   27065   27068
   27061   27056   27069   27070   27061   27056   27069   27071
   27061   27056   27069   27072   27065   27056   27057   27058
   27065   27056   27057   27059   27065   27056   27057   27060
   27065   27056   27061   27062   27065   27056   27061   27063
   27065   27056   27061   27064   27065   27056   27069   27070
   27065   27056   27069   27071   27065   27056   27069   27072
   27069   27056   27057   27058   27069   27056   27057   27059
   27069   27056   27057   27060   27069   27056   27061   27062
   27069   27056   27061   27063   27069   27056   27061   27064
   27069   27056   27065   27066   27069   27056   27065   27067
   27069   27056   27065   27068   27069   27072   27079   27075
   27070   27069   27072   27073   27070   27069   27072   27074
   27070   27069   27072   27079   27071   27069   27072   27073
   27071   27069   27072   27074   27071   27069   27072   27079
   27073   27072   27079   27075   27074   27072   27079   27075
   27075   27078   27080   27081   27075   27078   27080   27082
   27075   27078   27080   27083   27076   27075   27079   27072
   27076   27075   27078   27080   27077   27075   27079   27072
   27077   27075   27078   27080   27078   27075   27079   27072
   27078   27080   27083   27084   27078   27080   27083   27091
   27078   27080   27083   27085   27079   27075   27078   27080
   27080   27083   27091   27092   27080   27083   27091   27093
   27080   27083   27091   27094   27080   27083   27085   27086
   27081   27080   27083   27084   27081   27080   27083   27091
   27081   27080   27083   27085   27082   27080   27083   27084
   27082   27080   27083   27091   27082   27080   27083   27085
   27083   27091   27094   27095   27083   27085   27086   27088
   27083   27085   27086   27087   27084   27083   27091   27092
   27084   27083   27091   27093   27084   27083   27091   27094
   27084   27083   27085   27086   27085   27086   27088   27089
   27085   27086   27088   27090   27085   27086   27088   27100
   27085   27083   27091   27092   27085   27083   27091   27093
   27085   27083   27091   27094   27086   27088   27100   27101
   27086   27088   27100   27102   27086   27088   27100   27103
   27087   27086   27088   27089   27087   27086   27088   27090
   27087   27086   27088   27100   27088   27100   27103   27104
   27088   27100   27103   27105   27088   27100   27103   27106
   27089   27088   27100   27101   27089   27088   27100   27102
   27089   27088   27100   27103   27090   27088   27100   27101
   27090   27088   27100   27102   27090   27088   27100   27103
   27091   27083   27085   27086   27091   27094   27095   27097
   27091   27094   27095   27096   27092   27091   27094   27095
   27093   27091   27094   27095   27094   27095   27097   27098
   27094   27095   27097   27099   27094   27095   27097   27137
   27095   27097   27137   27138   27095   27097   27137   27139
   27095   27097   27137   27140   27096   27095   27097   27098
   27096   27095   27097   27099   27096   27095   27097   27137
   27097   27137   27140   27141   27097   27137   27140   27142
   27097   27137   27140   27143   27098   27097   27137   27138
   27098   27097   27137   27139   27098   27097   27137   27140
   27099   27097   27137   27138   27099   27097   27137   27139
   27099   27097   27137   27140   27100   27103   27106   27107
   27100   27103   27106   27108   27100   27103   27106   27109
   27101   27100   27103   27104   27101   27100   27103   27105
   27101   27100   27103   27106   27102   27100   27103   27104
   27102   27100   27103   27105   27102   27100   27103   27106
   27103   27106   27109   27110   27103   27106   27109   27111
   27103   27106   27109   27112   27104   27103   27106   27107
   27104   27103   27106   27108   27104   27103   27106   27109
   27105   27103   27106   27107   27105   27103   27106   27108
   27105   27103   27106   27109   27106   27109   27112   27113
   27106   27109   27112   27114   27106   27109   27112   27115
   27107   27106   27109   27110   27107   27106   27109   27111
   27107   27106   27109   27112   27108   27106   27109   27110
   27108   27106   27109   27111   27108   27106   27109   27112
   27109   27112   27115   27116   27109   27112   27115   27117
   27109   27112   27115   27118   27110   27109   27112   27113
   27110   27109   27112   27114   27110   27109   27112   27115
   27111   27109   27112   27113   27111   27109   27112   27114
   27111   27109   27112   27115   27112   27115   27118   27119
   27112   27115   27118   27120   27112   27115   27118   27121
   27113   27112   27115   27116   27113   27112   27115   27117
   27113   27112   27115   27118   27114   27112   27115   27116
   27114   27112   27115   27117   27114   27112   27115   27118
   27115   27118   27121   27122   27115   27118   27121   27123
   27115   27118   27121   27124   27116   27115   27118   27119
   27116   27115   27118   27120   27116   27115   27118   27121
   27117   27115   27118   27119   27117   27115   27118   27120
   27117   27115   27118   27121   27118   27121   27124   27125
   27118   27121   27124   27126   27118   27121   27124   27127
   27119   27118   27121   27122   27119   27118   27121   27123
   27119   27118   27121   27124   27120   27118   27121   27122
   27120   27118   27121   27123   27120   27118   27121   27124
   27121   27124   27127   27128   27121   27124   27127   27129
   27121   27124   27127   27130   27122   27121   27124   27125
   27122   27121   27124   27126   27122   27121   27124   27127
   27123   27121   27124   27125   27123   27121   27124   27126
   27123   27121   27124   27127   27124   27127   27130   27131
   27124   27127   27130   27132   27124   27127   27130   27133
   27125   27124   27127   27128   27125   27124   27127   27129
   27125   27124   27127   27130   27126   27124   27127   27128
   27126   27124   27127   27129   27126   27124   27127   27130
   27127   27130   27133   27134   27127   27130   27133   27135
   27127   27130   27133   27136   27128   27127   27130   27131
   27128   27127   27130   27132   27128   27127   27130   27133
   27129   27127   27130   27131   27129   27127   27130   27132
   27129   27127   27130   27133   27131   27130   27133   27134
   27131   27130   27133   27135   27131   27130   27133   27136
   27132   27130   27133   27134   27132   27130   27133   27135
   27132   27130   27133   27136   27137   27140   27143   27144
   27137   27140   27143   27145   27137   27140   27143   27146
   27138   27137   27140   27141   27138   27137   27140   27142
   27138   27137   27140   27143   27139   27137   27140   27141
   27139   27137   27140   27142   27139   27137   27140   27143
   27140   27143   27146   27147   27140   27143   27146   27148
   27140   27143   27146   27149   27141   27140   27143   27144
   27141   27140   27143   27145   27141   27140   27143   27146
   27142   27140   27143   27144   27142   27140   27143   27145
   27142   27140   27143   27146   27143   27146   27149   27150
   27143   27146   27149   27151   27143   27146   27149   27152
   27144   27143   27146   27147   27144   27143   27146   27148
   27144   27143   27146   27149   27145   27143   27146   27147
   27145   27143   27146   27148   27145   27143   27146   27149
   27146   27149   27152   27153   27146   27149   27152   27154
   27146   27149   27152   27155   27147   27146   27149   27150
   27147   27146   27149   27151   27147   27146   27149   27152
   27148   27146   27149   27150   27148   27146   27149   27151
   27148   27146   27149   27152   27149   27152   27155   27156
   27149   27152   27155   27157   27149   27152   27155   27158
   27150   27149   27152   27153   27150   27149   27152   27154
   27150   27149   27152   27155   27151   27149   27152   27153
   27151   27149   27152   27154   27151   27149   27152   27155
   27152   27155   27158   27159   27152   27155   27158   27160
   27152   27155   27158   27161   27153   27152   27155   27156
   27153   27152   27155   27157   27153   27152   27155   27158
   27154   27152   27155   27156   27154   27152   27155   27157
   27154   27152   27155   27158   27155   27158   27161   27162
   27155   27158   27161   27163   27155   27158   27161   27164
   27156   27155   27158   27159   27156   27155   27158   27160
   27156   27155   27158   27161   27157   27155   27158   27159
   27157   27155   27158   27160   27157   27155   27158   27161
   27158   27161   27164   27165   27158   27161   27164   27166
   27158   27161   27164   27167   27159   27158   27161   27162
   27159   27158   27161   27163   27159   27158   27161   27164
   27160   27158   27161   27162   27160   27158   27161   27163
   27160   27158   27161   27164   27161   27164   27167   27168
   27161   27164   27167   27169   27161   27164   27167   27170
   27162   27161   27164   27165   27162   27161   27164   27166
   27162   27161   27164   27167   27163   27161   27164   27165
   27163   27161   27164   27166   27163   27161   27164   27167
   27164   27167   27170   27171   27164   27167   27170   27172
   27164   27167   27170   27173   27165   27164   27167   27168
   27165   27164   27167   27169   27165   27164   27167   27170
   27166   27164   27167   27168   27166   27164   27167   27169
   27166   27164   27167   27170   27168   27167   27170   27171
   27168   27167   27170   27172   27168   27167   27170   27173
   27169   27167   27170   27171   27169   27167   27170   27172
   27169   27167   27170   27173   27174   27187   27190   27191
   27174   27187   27190   27192   27174   27187   27190   27197
   27175   27174   27179   27180   27175   27174   27179   27181
   27175   27174   27179   27182   27175   27174   27183   27184
   27175   27174   27183   27185   27175   27174   27183   27186
   27175   27174   27187   27188   27175   27174   27187   27189
   27175   27174   27187   27190   27179   27174   27175   27176
   27179   27174   27175   27177   27179   27174   27175   27178
   27179   27174   27183   27184   27179   27174   27183   27185
   27179   27174   27183   27186   27179   27174   27187   27188
   27179   27174   27187   27189   27179   27174   27187   27190
   27183   27174   27175   27176   27183   27174   27175   27177
   27183   27174   27175   27178   27183   27174   27179   27180
   27183   27174   27179   27181   27183   27174   27179   27182
   27183   27174   27187   27188   27183   27174   27187   27189
   27183   27174   27187   27190   27187   27174   27175   27176
   27187   27174   27175   27177   27187   27174   27175   27178
   27187   27174   27179   27180   27187   27174   27179   27181
   27187   27174   27179   27182   27187   27174   27183   27184
   27187   27174   27183   27185   27187   27174   27183   27186
   27187   27190   27197   27193   27188   27187   27190   27191
   27188   27187   27190   27192   27188   27187   27190   27197
   27189   27187   27190   27191   27189   27187   27190   27192
   27189   27187   27190   27197   27191   27190   27197   27193
   27192   27190   27197   27193   27193   27196   27198   27199
   27193   27196   27198   27200   27193   27196   27198   27201
   27194   27193   27197   27190   27194   27193   27196   27198
   27195   27193   27197   27190   27195   27193   27196   27198
   27196   27193   27197   27190   27196   27198   27201   27202
   27196   27198   27201   27209   27196   27198   27201   27203
   27197   27193   27196   27198   27198   27201   27209   27210
   27198   27201   27209   27211   27198   27201   27209   27212
   27198   27201   27203   27204   27199   27198   27201   27202
   27199   27198   27201   27209   27199   27198   27201   27203
   27200   27198   27201   27202   27200   27198   27201   27209
   27200   27198   27201   27203   27201   27209   27212   27213
   27201   27203   27204   27206   27201   27203   27204   27205
   27202   27201   27209   27210   27202   27201   27209   27211
   27202   27201   27209   27212   27202   27201   27203   27204
   27203   27204   27206   27207   27203   27204   27206   27208
   27203   27204   27206   27218   27203   27201   27209   27210
   27203   27201   27209   27211   27203   27201   27209   27212
   27204   27206   27218   27219   27204   27206   27218   27220
   27204   27206   27218   27221   27205   27204   27206   27207
   27205   27204   27206   27208   27205   27204   27206   27218
   27206   27218   27221   27222   27206   27218   27221   27223
   27206   27218   27221   27224   27207   27206   27218   27219
   27207   27206   27218   27220   27207   27206   27218   27221
   27208   27206   27218   27219   27208   27206   27218   27220
   27208   27206   27218   27221   27209   27201   27203   27204
   27209   27212   27213   27215   27209   27212   27213   27214
   27210   27209   27212   27213   27211   27209   27212   27213
   27212   27213   27215   27216   27212   27213   27215   27217
   27212   27213   27215   27255   27213   27215   27255   27256
   27213   27215   27255   27257   27213   27215   27255   27258
   27214   27213   27215   27216   27214   27213   27215   27217
   27214   27213   27215   27255   27215   27255   27258   27259
   27215   27255   27258   27260   27215   27255   27258   27261
   27216   27215   27255   27256   27216   27215   27255   27257
   27216   27215   27255   27258   27217   27215   27255   27256
   27217   27215   27255   27257   27217   27215   27255   27258
   27218   27221   27224   27225   27218   27221   27224   27226
   27218   27221   27224   27227   27219   27218   27221   27222
   27219   27218   27221   27223   27219   27218   27221   27224
   27220   27218   27221   27222   27220   27218   27221   27223
   27220   27218   27221   27224   27221   27224   27227   27228
   27221   27224   27227   27229   27221   27224   27227   27230
   27222   27221   27224   27225   27222   27221   27224   27226
   27222   27221   27224   27227   27223   27221   27224   27225
   27223   27221   27224   27226   27223   27221   27224   27227
   27224   27227   27230   27231   27224   27227   27230   27232
   27224   27227   27230   27233   27225   27224   27227   27228
   27225   27224   27227   27229   27225   27224   27227   27230
   27226   27224   27227   27228   27226   27224   27227   27229
   27226   27224   27227   27230   27227   27230   27233   27234
   27227   27230   27233   27235   27227   27230   27233   27236
   27228   27227   27230   27231   27228   27227   27230   27232
   27228   27227   27230   27233   27229   27227   27230   27231
   27229   27227   27230   27232   27229   27227   27230   27233
   27230   27233   27236   27237   27230   27233   27236   27238
   27230   27233   27236   27239   27231   27230   27233   27234
   27231   27230   27233   27235   27231   27230   27233   27236
   27232   27230   27233   27234   27232   27230   27233   27235
   27232   27230   27233   27236   27233   27236   27239   27240
   27233   27236   27239   27241   27233   27236   27239   27242
   27234   27233   27236   27237   27234   27233   27236   27238
   27234   27233   27236   27239   27235   27233   27236   27237
   27235   27233   27236   27238   27235   27233   27236   27239
   27236   27239   27242   27243   27236   27239   27242   27244
   27236   27239   27242   27245   27237   27236   27239   27240
   27237   27236   27239   27241   27237   27236   27239   27242
   27238   27236   27239   27240   27238   27236   27239   27241
   27238   27236   27239   27242   27239   27242   27245   27246
   27239   27242   27245   27247   27239   27242   27245   27248
   27240   27239   27242   27243   27240   27239   27242   27244
   27240   27239   27242   27245   27241   27239   27242   27243
   27241   27239   27242   27244   27241   27239   27242   27245
   27242   27245   27248   27249   27242   27245   27248   27250
   27242   27245   27248   27251   27243   27242   27245   27246
   27243   27242   27245   27247   27243   27242   27245   27248
   27244   27242   27245   27246   27244   27242   27245   27247
   27244   27242   27245   27248   27245   27248   27251   27252
   27245   27248   27251   27253   27245   27248   27251   27254
   27246   27245   27248   27249   27246   27245   27248   27250
   27246   27245   27248   27251   27247   27245   27248   27249
   27247   27245   27248   27250   27247   27245   27248   27251
   27249   27248   27251   27252   27249   27248   27251   27253
   27249   27248   27251   27254   27250   27248   27251   27252
   27250   27248   27251   27253   27250   27248   27251   27254
   27255   27258   27261   27262   27255   27258   27261   27263
   27255   27258   27261   27264   27256   27255   27258   27259
   27256   27255   27258   27260   27256   27255   27258   27261
   27257   27255   27258   27259   27257   27255   27258   27260
   27257   27255   27258   27261   27258   27261   27264   27265
   27258   27261   27264   27266   27258   27261   27264   27267
   27259   27258   27261   27262   27259   27258   27261   27263
   27259   27258   27261   27264   27260   27258   27261   27262
   27260   27258   27261   27263   27260   27258   27261   27264
   27261   27264   27267   27268   27261   27264   27267   27269
   27261   27264   27267   27270   27262   27261   27264   27265
   27262   27261   27264   27266   27262   27261   27264   27267
   27263   27261   27264   27265   27263   27261   27264   27266
   27263   27261   27264   27267   27264   27267   27270   27271
   27264   27267   27270   27272   27264   27267   27270   27273
   27265   27264   27267   27268   27265   27264   27267   27269
   27265   27264   27267   27270   27266   27264   27267   27268
   27266   27264   27267   27269   27266   27264   27267   27270
   27267   27270   27273   27274   27267   27270   27273   27275
   27267   27270   27273   27276   27268   27267   27270   27271
   27268   27267   27270   27272   27268   27267   27270   27273
   27269   27267   27270   27271   27269   27267   27270   27272
   27269   27267   27270   27273   27270   27273   27276   27277
   27270   27273   27276   27278   27270   27273   27276   27279
   27271   27270   27273   27274   27271   27270   27273   27275
   27271   27270   27273   27276   27272   27270   27273   27274
   27272   27270   27273   27275   27272   27270   27273   27276
   27273   27276   27279   27280   27273   27276   27279   27281
   27273   27276   27279   27282   27274   27273   27276   27277
   27274   27273   27276   27278   27274   27273   27276   27279
   27275   27273   27276   27277   27275   27273   27276   27278
   27275   27273   27276   27279   27276   27279   27282   27283
   27276   27279   27282   27284   27276   27279   27282   27285
   27277   27276   27279   27280   27277   27276   27279   27281
   27277   27276   27279   27282   27278   27276   27279   27280
   27278   27276   27279   27281   27278   27276   27279   27282
   27279   27282   27285   27286   27279   27282   27285   27287
   27279   27282   27285   27288   27280   27279   27282   27283
   27280   27279   27282   27284   27280   27279   27282   27285
   27281   27279   27282   27283   27281   27279   27282   27284
   27281   27279   27282   27285   27282   27285   27288   27289
   27282   27285   27288   27290   27282   27285   27288   27291
   27283   27282   27285   27286   27283   27282   27285   27287
   27283   27282   27285   27288   27284   27282   27285   27286
   27284   27282   27285   27287   27284   27282   27285   27288
   27286   27285   27288   27289   27286   27285   27288   27290
   27286   27285   27288   27291   27287   27285   27288   27289
   27287   27285   27288   27290   27287   27285   27288   27291
   27292   27305   27308   27309   27292   27305   27308   27310
   27292   27305   27308   27315   27293   27292   27297   27298
   27293   27292   27297   27299   27293   27292   27297   27300
   27293   27292   27301   27302   27293   27292   27301   27303
   27293   27292   27301   27304   27293   27292   27305   27306
   27293   27292   27305   27307   27293   27292   27305   27308
   27297   27292   27293   27294   27297   27292   27293   27295
   27297   27292   27293   27296   27297   27292   27301   27302
   27297   27292   27301   27303   27297   27292   27301   27304
   27297   27292   27305   27306   27297   27292   27305   27307
   27297   27292   27305   27308   27301   27292   27293   27294
   27301   27292   27293   27295   27301   27292   27293   27296
   27301   27292   27297   27298   27301   27292   27297   27299
   27301   27292   27297   27300   27301   27292   27305   27306
   27301   27292   27305   27307   27301   27292   27305   27308
   27305   27292   27293   27294   27305   27292   27293   27295
   27305   27292   27293   27296   27305   27292   27297   27298
   27305   27292   27297   27299   27305   27292   27297   27300
   27305   27292   27301   27302   27305   27292   27301   27303
   27305   27292   27301   27304   27305   27308   27315   27311
   27306   27305   27308   27309   27306   27305   27308   27310
   27306   27305   27308   27315   27307   27305   27308   27309
   27307   27305   27308   27310   27307   27305   27308   27315
   27309   27308   27315   27311   27310   27308   27315   27311
   27311   27314   27316   27317   27311   27314   27316   27318
   27311   27314   27316   27319   27312   27311   27315   27308
   27312   27311   27314   27316   27313   27311   27315   27308
   27313   27311   27314   27316   27314   27311   27315   27308
   27314   27316   27319   27320   27314   27316   27319   27327
   27314   27316   27319   27321   27315   27311   27314   27316
   27316   27319   27327   27328   27316   27319   27327   27329
   27316   27319   27327   27330   27316   27319   27321   27322
   27317   27316   27319   27320   27317   27316   27319   27327
   27317   27316   27319   27321   27318   27316   27319   27320
   27318   27316   27319   27327   27318   27316   27319   27321
   27319   27327   27330   27331   27319   27321   27322   27324
   27319   27321   27322   27323   27320   27319   27327   27328
   27320   27319   27327   27329   27320   27319   27327   27330
   27320   27319   27321   27322   27321   27322   27324   27325
   27321   27322   27324   27326   27321   27322   27324   27336
   27321   27319   27327   27328   27321   27319   27327   27329
   27321   27319   27327   27330   27322   27324   27336   27337
   27322   27324   27336   27338   27322   27324   27336   27339
   27323   27322   27324   27325   27323   27322   27324   27326
   27323   27322   27324   27336   27324   27336   27339   27340
   27324   27336   27339   27341   27324   27336   27339   27342
   27325   27324   27336   27337   27325   27324   27336   27338
   27325   27324   27336   27339   27326   27324   27336   27337
   27326   27324   27336   27338   27326   27324   27336   27339
   27327   27319   27321   27322   27327   27330   27331   27333
   27327   27330   27331   27332   27328   27327   27330   27331
   27329   27327   27330   27331   27330   27331   27333   27334
   27330   27331   27333   27335   27330   27331   27333   27373
   27331   27333   27373   27374   27331   27333   27373   27375
   27331   27333   27373   27376   27332   27331   27333   27334
   27332   27331   27333   27335   27332   27331   27333   27373
   27333   27373   27376   27377   27333   27373   27376   27378
   27333   27373   27376   27379   27334   27333   27373   27374
   27334   27333   27373   27375   27334   27333   27373   27376
   27335   27333   27373   27374   27335   27333   27373   27375
   27335   27333   27373   27376   27336   27339   27342   27343
   27336   27339   27342   27344   27336   27339   27342   27345
   27337   27336   27339   27340   27337   27336   27339   27341
   27337   27336   27339   27342   27338   27336   27339   27340
   27338   27336   27339   27341   27338   27336   27339   27342
   27339   27342   27345   27346   27339   27342   27345   27347
   27339   27342   27345   27348   27340   27339   27342   27343
   27340   27339   27342   27344   27340   27339   27342   27345
   27341   27339   27342   27343   27341   27339   27342   27344
   27341   27339   27342   27345   27342   27345   27348   27349
   27342   27345   27348   27350   27342   27345   27348   27351
   27343   27342   27345   27346   27343   27342   27345   27347
   27343   27342   27345   27348   27344   27342   27345   27346
   27344   27342   27345   27347   27344   27342   27345   27348
   27345   27348   27351   27352   27345   27348   27351   27353
   27345   27348   27351   27354   27346   27345   27348   27349
   27346   27345   27348   27350   27346   27345   27348   27351
   27347   27345   27348   27349   27347   27345   27348   27350
   27347   27345   27348   27351   27348   27351   27354   27355
   27348   27351   27354   27356   27348   27351   27354   27357
   27349   27348   27351   27352   27349   27348   27351   27353
   27349   27348   27351   27354   27350   27348   27351   27352
   27350   27348   27351   27353   27350   27348   27351   27354
   27351   27354   27357   27358   27351   27354   27357   27359
   27351   27354   27357   27360   27352   27351   27354   27355
   27352   27351   27354   27356   27352   27351   27354   27357
   27353   27351   27354   27355   27353   27351   27354   27356
   27353   27351   27354   27357   27354   27357   27360   27361
   27354   27357   27360   27362   27354   27357   27360   27363
   27355   27354   27357   27358   27355   27354   27357   27359
   27355   27354   27357   27360   27356   27354   27357   27358
   27356   27354   27357   27359   27356   27354   27357   27360
   27357   27360   27363   27364   27357   27360   27363   27365
   27357   27360   27363   27366   27358   27357   27360   27361
   27358   27357   27360   27362   27358   27357   27360   27363
   27359   27357   27360   27361   27359   27357   27360   27362
   27359   27357   27360   27363   27360   27363   27366   27367
   27360   27363   27366   27368   27360   27363   27366   27369
   27361   27360   27363   27364   27361   27360   27363   27365
   27361   27360   27363   27366   27362   27360   27363   27364
   27362   27360   27363   27365   27362   27360   27363   27366
   27363   27366   27369   27370   27363   27366   27369   27371
   27363   27366   27369   27372   27364   27363   27366   27367
   27364   27363   27366   27368   27364   27363   27366   27369
   27365   27363   27366   27367   27365   27363   27366   27368
   27365   27363   27366   27369   27367   27366   27369   27370
   27367   27366   27369   27371   27367   27366   27369   27372
   27368   27366   27369   27370   27368   27366   27369   27371
   27368   27366   27369   27372   27373   27376   27379   27380
   27373   27376   27379   27381   27373   27376   27379   27382
   27374   27373   27376   27377   27374   27373   27376   27378
   27374   27373   27376   27379   27375   27373   27376   27377
   27375   27373   27376   27378   27375   27373   27376   27379
   27376   27379   27382   27383   27376   27379   27382   27384
   27376   27379   27382   27385   27377   27376   27379   27380
   27377   27376   27379   27381   27377   27376   27379   27382
   27378   27376   27379   27380   27378   27376   27379   27381
   27378   27376   27379   27382   27379   27382   27385   27386
   27379   27382   27385   27387   27379   27382   27385   27388
   27380   27379   27382   27383   27380   27379   27382   27384
   27380   27379   27382   27385   27381   27379   27382   27383
   27381   27379   27382   27384   27381   27379   27382   27385
   27382   27385   27388   27389   27382   27385   27388   27390
   27382   27385   27388   27391   27383   27382   27385   27386
   27383   27382   27385   27387   27383   27382   27385   27388
   27384   27382   27385   27386   27384   27382   27385   27387
   27384   27382   27385   27388   27385   27388   27391   27392
   27385   27388   27391   27393   27385   27388   27391   27394
   27386   27385   27388   27389   27386   27385   27388   27390
   27386   27385   27388   27391   27387   27385   27388   27389
   27387   27385   27388   27390   27387   27385   27388   27391
   27388   27391   27394   27395   27388   27391   27394   27396
   27388   27391   27394   27397   27389   27388   27391   27392
   27389   27388   27391   27393   27389   27388   27391   27394
   27390   27388   27391   27392   27390   27388   27391   27393
   27390   27388   27391   27394   27391   27394   27397   27398
   27391   27394   27397   27399   27391   27394   27397   27400
   27392   27391   27394   27395   27392   27391   27394   27396
   27392   27391   27394   27397   27393   27391   27394   27395
   27393   27391   27394   27396   27393   27391   27394   27397
   27394   27397   27400   27401   27394   27397   27400   27402
   27394   27397   27400   27403   27395   27394   27397   27398
   27395   27394   27397   27399   27395   27394   27397   27400
   27396   27394   27397   27398   27396   27394   27397   27399
   27396   27394   27397   27400   27397   27400   27403   27404
   27397   27400   27403   27405   27397   27400   27403   27406
   27398   27397   27400   27401   27398   27397   27400   27402
   27398   27397   27400   27403   27399   27397   27400   27401
   27399   27397   27400   27402   27399   27397   27400   27403
   27400   27403   27406   27407   27400   27403   27406   27408
   27400   27403   27406   27409   27401   27400   27403   27404
   27401   27400   27403   27405   27401   27400   27403   27406
   27402   27400   27403   27404   27402   27400   27403   27405
   27402   27400   27403   27406   27404   27403   27406   27407
   27404   27403   27406   27408   27404   27403   27406   27409
   27405   27403   27406   27407   27405   27403   27406   27408
   27405   27403   27406   27409   27410   27423   27426   27427
   27410   27423   27426   27428   27410   27423   27426   27433
   27411   27410   27415   27416   27411   27410   27415   27417
   27411   27410   27415   27418   27411   27410   27419   27420
   27411   27410   27419   27421   27411   27410   27419   27422
   27411   27410   27423   27424   27411   27410   27423   27425
   27411   27410   27423   27426   27415   27410   27411   27412
   27415   27410   27411   27413   27415   27410   27411   27414
   27415   27410   27419   27420   27415   27410   27419   27421
   27415   27410   27419   27422   27415   27410   27423   27424
   27415   27410   27423   27425   27415   27410   27423   27426
   27419   27410   27411   27412   27419   27410   27411   27413
   27419   27410   27411   27414   27419   27410   27415   27416
   27419   27410   27415   27417   27419   27410   27415   27418
   27419   27410   27423   27424   27419   27410   27423   27425
   27419   27410   27423   27426   27423   27410   27411   27412
   27423   27410   27411   27413   27423   27410   27411   27414
   27423   27410   27415   27416   27423   27410   27415   27417
   27423   27410   27415   27418   27423   27410   27419   27420
   27423   27410   27419   27421   27423   27410   27419   27422
   27423   27426   27433   27429   27424   27423   27426   27427
   27424   27423   27426   27428   27424   27423   27426   27433
   27425   27423   27426   27427   27425   27423   27426   27428
   27425   27423   27426   27433   27427   27426   27433   27429
   27428   27426   27433   27429   27429   27432   27434   27435
   27429   27432   27434   27436   27429   27432   27434   27437
   27430   27429   27433   27426   27430   27429   27432   27434
   27431   27429   27433   27426   27431   27429   27432   27434
   27432   27429   27433   27426   27432   27434   27437   27438
   27432   27434   27437   27445   27432   27434   27437   27439
   27433   27429   27432   27434   27434   27437   27445   27446
   27434   27437   27445   27447   27434   27437   27445   27448
   27434   27437   27439   27440   27435   27434   27437   27438
   27435   27434   27437   27445   27435   27434   27437   27439
   27436   27434   27437   27438   27436   27434   27437   27445
   27436   27434   27437   27439   27437   27445   27448   27449
   27437   27439   27440   27442   27437   27439   27440   27441
   27438   27437   27445   27446   27438   27437   27445   27447
   27438   27437   27445   27448   27438   27437   27439   27440
   27439   27440   27442   27443   27439   27440   27442   27444
   27439   27440   27442   27454   27439   27437   27445   27446
   27439   27437   27445   27447   27439   27437   27445   27448
   27440   27442   27454   27455   27440   27442   27454   27456
   27440   27442   27454   27457   27441   27440   27442   27443
   27441   27440   27442   27444   27441   27440   27442   27454
   27442   27454   27457   27458   27442   27454   27457   27459
   27442   27454   27457   27460   27443   27442   27454   27455
   27443   27442   27454   27456   27443   27442   27454   27457
   27444   27442   27454   27455   27444   27442   27454   27456
   27444   27442   27454   27457   27445   27437   27439   27440
   27445   27448   27449   27451   27445   27448   27449   27450
   27446   27445   27448   27449   27447   27445   27448   27449
   27448   27449   27451   27452   27448   27449   27451   27453
   27448   27449   27451   27491   27449   27451   27491   27492
   27449   27451   27491   27493   27449   27451   27491   27494
   27450   27449   27451   27452   27450   27449   27451   27453
   27450   27449   27451   27491   27451   27491   27494   27495
   27451   27491   27494   27496   27451   27491   27494   27497
   27452   27451   27491   27492   27452   27451   27491   27493
   27452   27451   27491   27494   27453   27451   27491   27492
   27453   27451   27491   27493   27453   27451   27491   27494
   27454   27457   27460   27461   27454   27457   27460   27462
   27454   27457   27460   27463   27455   27454   27457   27458
   27455   27454   27457   27459   27455   27454   27457   27460
   27456   27454   27457   27458   27456   27454   27457   27459
   27456   27454   27457   27460   27457   27460   27463   27464
   27457   27460   27463   27465   27457   27460   27463   27466
   27458   27457   27460   27461   27458   27457   27460   27462
   27458   27457   27460   27463   27459   27457   27460   27461
   27459   27457   27460   27462   27459   27457   27460   27463
   27460   27463   27466   27467   27460   27463   27466   27468
   27460   27463   27466   27469   27461   27460   27463   27464
   27461   27460   27463   27465   27461   27460   27463   27466
   27462   27460   27463   27464   27462   27460   27463   27465
   27462   27460   27463   27466   27463   27466   27469   27470
   27463   27466   27469   27471   27463   27466   27469   27472
   27464   27463   27466   27467   27464   27463   27466   27468
   27464   27463   27466   27469   27465   27463   27466   27467
   27465   27463   27466   27468   27465   27463   27466   27469
   27466   27469   27472   27473   27466   27469   27472   27474
   27466   27469   27472   27475   27467   27466   27469   27470
   27467   27466   27469   27471   27467   27466   27469   27472
   27468   27466   27469   27470   27468   27466   27469   27471
   27468   27466   27469   27472   27469   27472   27475   27476
   27469   27472   27475   27477   27469   27472   27475   27478
   27470   27469   27472   27473   27470   27469   27472   27474
   27470   27469   27472   27475   27471   27469   27472   27473
   27471   27469   27472   27474   27471   27469   27472   27475
   27472   27475   27478   27479   27472   27475   27478   27480
   27472   27475   27478   27481   27473   27472   27475   27476
   27473   27472   27475   27477   27473   27472   27475   27478
   27474   27472   27475   27476   27474   27472   27475   27477
   27474   27472   27475   27478   27475   27478   27481   27482
   27475   27478   27481   27483   27475   27478   27481   27484
   27476   27475   27478   27479   27476   27475   27478   27480
   27476   27475   27478   27481   27477   27475   27478   27479
   27477   27475   27478   27480   27477   27475   27478   27481
   27478   27481   27484   27485   27478   27481   27484   27486
   27478   27481   27484   27487   27479   27478   27481   27482
   27479   27478   27481   27483   27479   27478   27481   27484
   27480   27478   27481   27482   27480   27478   27481   27483
   27480   27478   27481   27484   27481   27484   27487   27488
   27481   27484   27487   27489   27481   27484   27487   27490
   27482   27481   27484   27485   27482   27481   27484   27486
   27482   27481   27484   27487   27483   27481   27484   27485
   27483   27481   27484   27486   27483   27481   27484   27487
   27485   27484   27487   27488   27485   27484   27487   27489
   27485   27484   27487   27490   27486   27484   27487   27488
   27486   27484   27487   27489   27486   27484   27487   27490
   27491   27494   27497   27498   27491   27494   27497   27499
   27491   27494   27497   27500   27492   27491   27494   27495
   27492   27491   27494   27496   27492   27491   27494   27497
   27493   27491   27494   27495   27493   27491   27494   27496
   27493   27491   27494   27497   27494   27497   27500   27501
   27494   27497   27500   27502   27494   27497   27500   27503
   27495   27494   27497   27498   27495   27494   27497   27499
   27495   27494   27497   27500   27496   27494   27497   27498
   27496   27494   27497   27499   27496   27494   27497   27500
   27497   27500   27503   27504   27497   27500   27503   27505
   27497   27500   27503   27506   27498   27497   27500   27501
   27498   27497   27500   27502   27498   27497   27500   27503
   27499   27497   27500   27501   27499   27497   27500   27502
   27499   27497   27500   27503   27500   27503   27506   27507
   27500   27503   27506   27508   27500   27503   27506   27509
   27501   27500   27503   27504   27501   27500   27503   27505
   27501   27500   27503   27506   27502   27500   27503   27504
   27502   27500   27503   27505   27502   27500   27503   27506
   27503   27506   27509   27510   27503   27506   27509   27511
   27503   27506   27509   27512   27504   27503   27506   27507
   27504   27503   27506   27508   27504   27503   27506   27509
   27505   27503   27506   27507   27505   27503   27506   27508
   27505   27503   27506   27509   27506   27509   27512   27513
   27506   27509   27512   27514   27506   27509   27512   27515
   27507   27506   27509   27510   27507   27506   27509   27511
   27507   27506   27509   27512   27508   27506   27509   27510
   27508   27506   27509   27511   27508   27506   27509   27512
   27509   27512   27515   27516   27509   27512   27515   27517
   27509   27512   27515   27518   27510   27509   27512   27513
   27510   27509   27512   27514   27510   27509   27512   27515
   27511   27509   27512   27513   27511   27509   27512   27514
   27511   27509   27512   27515   27512   27515   27518   27519
   27512   27515   27518   27520   27512   27515   27518   27521
   27513   27512   27515   27516   27513   27512   27515   27517
   27513   27512   27515   27518   27514   27512   27515   27516
   27514   27512   27515   27517   27514   27512   27515   27518
   27515   27518   27521   27522   27515   27518   27521   27523
   27515   27518   27521   27524   27516   27515   27518   27519
   27516   27515   27518   27520   27516   27515   27518   27521
   27517   27515   27518   27519   27517   27515   27518   27520
   27517   27515   27518   27521   27518   27521   27524   27525
   27518   27521   27524   27526   27518   27521   27524   27527
   27519   27518   27521   27522   27519   27518   27521   27523
   27519   27518   27521   27524   27520   27518   27521   27522
   27520   27518   27521   27523   27520   27518   27521   27524
   27522   27521   27524   27525   27522   27521   27524   27526
   27522   27521   27524   27527   27523   27521   27524   27525
   27523   27521   27524   27526   27523   27521   27524   27527
   27528   27541   27544   27545   27528   27541   27544   27546
   27528   27541   27544   27551   27529   27528   27533   27534
   27529   27528   27533   27535   27529   27528   27533   27536
   27529   27528   27537   27538   27529   27528   27537   27539
   27529   27528   27537   27540   27529   27528   27541   27542
   27529   27528   27541   27543   27529   27528   27541   27544
   27533   27528   27529   27530   27533   27528   27529   27531
   27533   27528   27529   27532   27533   27528   27537   27538
   27533   27528   27537   27539   27533   27528   27537   27540
   27533   27528   27541   27542   27533   27528   27541   27543
   27533   27528   27541   27544   27537   27528   27529   27530
   27537   27528   27529   27531   27537   27528   27529   27532
   27537   27528   27533   27534   27537   27528   27533   27535
   27537   27528   27533   27536   27537   27528   27541   27542
   27537   27528   27541   27543   27537   27528   27541   27544
   27541   27528   27529   27530   27541   27528   27529   27531
   27541   27528   27529   27532   27541   27528   27533   27534
   27541   27528   27533   27535   27541   27528   27533   27536
   27541   27528   27537   27538   27541   27528   27537   27539
   27541   27528   27537   27540   27541   27544   27551   27547
   27542   27541   27544   27545   27542   27541   27544   27546
   27542   27541   27544   27551   27543   27541   27544   27545
   27543   27541   27544   27546   27543   27541   27544   27551
   27545   27544   27551   27547   27546   27544   27551   27547
   27547   27550   27552   27553   27547   27550   27552   27554
   27547   27550   27552   27555   27548   27547   27551   27544
   27548   27547   27550   27552   27549   27547   27551   27544
   27549   27547   27550   27552   27550   27547   27551   27544
   27550   27552   27555   27556   27550   27552   27555   27563
   27550   27552   27555   27557   27551   27547   27550   27552
   27552   27555   27563   27564   27552   27555   27563   27565
   27552   27555   27563   27566   27552   27555   27557   27558
   27553   27552   27555   27556   27553   27552   27555   27563
   27553   27552   27555   27557   27554   27552   27555   27556
   27554   27552   27555   27563   27554   27552   27555   27557
   27555   27563   27566   27567   27555   27557   27558   27560
   27555   27557   27558   27559   27556   27555   27563   27564
   27556   27555   27563   27565   27556   27555   27563   27566
   27556   27555   27557   27558   27557   27558   27560   27561
   27557   27558   27560   27562   27557   27558   27560   27572
   27557   27555   27563   27564   27557   27555   27563   27565
   27557   27555   27563   27566   27558   27560   27572   27573
   27558   27560   27572   27574   27558   27560   27572   27575
   27559   27558   27560   27561   27559   27558   27560   27562
   27559   27558   27560   27572   27560   27572   27575   27576
   27560   27572   27575   27577   27560   27572   27575   27578
   27561   27560   27572   27573   27561   27560   27572   27574
   27561   27560   27572   27575   27562   27560   27572   27573
   27562   27560   27572   27574   27562   27560   27572   27575
   27563   27555   27557   27558   27563   27566   27567   27569
   27563   27566   27567   27568   27564   27563   27566   27567
   27565   27563   27566   27567   27566   27567   27569   27570
   27566   27567   27569   27571   27566   27567   27569   27609
   27567   27569   27609   27610   27567   27569   27609   27611
   27567   27569   27609   27612   27568   27567   27569   27570
   27568   27567   27569   27571   27568   27567   27569   27609
   27569   27609   27612   27613   27569   27609   27612   27614
   27569   27609   27612   27615   27570   27569   27609   27610
   27570   27569   27609   27611   27570   27569   27609   27612
   27571   27569   27609   27610   27571   27569   27609   27611
   27571   27569   27609   27612   27572   27575   27578   27579
   27572   27575   27578   27580   27572   27575   27578   27581
   27573   27572   27575   27576   27573   27572   27575   27577
   27573   27572   27575   27578   27574   27572   27575   27576
   27574   27572   27575   27577   27574   27572   27575   27578
   27575   27578   27581   27582   27575   27578   27581   27583
   27575   27578   27581   27584   27576   27575   27578   27579
   27576   27575   27578   27580   27576   27575   27578   27581
   27577   27575   27578   27579   27577   27575   27578   27580
   27577   27575   27578   27581   27578   27581   27584   27585
   27578   27581   27584   27586   27578   27581   27584   27587
   27579   27578   27581   27582   27579   27578   27581   27583
   27579   27578   27581   27584   27580   27578   27581   27582
   27580   27578   27581   27583   27580   27578   27581   27584
   27581   27584   27587   27588   27581   27584   27587   27589
   27581   27584   27587   27590   27582   27581   27584   27585
   27582   27581   27584   27586   27582   27581   27584   27587
   27583   27581   27584   27585   27583   27581   27584   27586
   27583   27581   27584   27587   27584   27587   27590   27591
   27584   27587   27590   27592   27584   27587   27590   27593
   27585   27584   27587   27588   27585   27584   27587   27589
   27585   27584   27587   27590   27586   27584   27587   27588
   27586   27584   27587   27589   27586   27584   27587   27590
   27587   27590   27593   27594   27587   27590   27593   27595
   27587   27590   27593   27596   27588   27587   27590   27591
   27588   27587   27590   27592   27588   27587   27590   27593
   27589   27587   27590   27591   27589   27587   27590   27592
   27589   27587   27590   27593   27590   27593   27596   27597
   27590   27593   27596   27598   27590   27593   27596   27599
   27591   27590   27593   27594   27591   27590   27593   27595
   27591   27590   27593   27596   27592   27590   27593   27594
   27592   27590   27593   27595   27592   27590   27593   27596
   27593   27596   27599   27600   27593   27596   27599   27601
   27593   27596   27599   27602   27594   27593   27596   27597
   27594   27593   27596   27598   27594   27593   27596   27599
   27595   27593   27596   27597   27595   27593   27596   27598
   27595   27593   27596   27599   27596   27599   27602   27603
   27596   27599   27602   27604   27596   27599   27602   27605
   27597   27596   27599   27600   27597   27596   27599   27601
   27597   27596   27599   27602   27598   27596   27599   27600
   27598   27596   27599   27601   27598   27596   27599   27602
   27599   27602   27605   27606   27599   27602   27605   27607
   27599   27602   27605   27608   27600   27599   27602   27603
   27600   27599   27602   27604   27600   27599   27602   27605
   27601   27599   27602   27603   27601   27599   27602   27604
   27601   27599   27602   27605   27603   27602   27605   27606
   27603   27602   27605   27607   27603   27602   27605   27608
   27604   27602   27605   27606   27604   27602   27605   27607
   27604   27602   27605   27608   27609   27612   27615   27616
   27609   27612   27615   27617   27609   27612   27615   27618
   27610   27609   27612   27613   27610   27609   27612   27614
   27610   27609   27612   27615   27611   27609   27612   27613
   27611   27609   27612   27614   27611   27609   27612   27615
   27612   27615   27618   27619   27612   27615   27618   27620
   27612   27615   27618   27621   27613   27612   27615   27616
   27613   27612   27615   27617   27613   27612   27615   27618
   27614   27612   27615   27616   27614   27612   27615   27617
   27614   27612   27615   27618   27615   27618   27621   27622
   27615   27618   27621   27623   27615   27618   27621   27624
   27616   27615   27618   27619   27616   27615   27618   27620
   27616   27615   27618   27621   27617   27615   27618   27619
   27617   27615   27618   27620   27617   27615   27618   27621
   27618   27621   27624   27625   27618   27621   27624   27626
   27618   27621   27624   27627   27619   27618   27621   27622
   27619   27618   27621   27623   27619   27618   27621   27624
   27620   27618   27621   27622   27620   27618   27621   27623
   27620   27618   27621   27624   27621   27624   27627   27628
   27621   27624   27627   27629   27621   27624   27627   27630
   27622   27621   27624   27625   27622   27621   27624   27626
   27622   27621   27624   27627   27623   27621   27624   27625
   27623   27621   27624   27626   27623   27621   27624   27627
   27624   27627   27630   27631   27624   27627   27630   27632
   27624   27627   27630   27633   27625   27624   27627   27628
   27625   27624   27627   27629   27625   27624   27627   27630
   27626   27624   27627   27628   27626   27624   27627   27629
   27626   27624   27627   27630   27627   27630   27633   27634
   27627   27630   27633   27635   27627   27630   27633   27636
   27628   27627   27630   27631   27628   27627   27630   27632
   27628   27627   27630   27633   27629   27627   27630   27631
   27629   27627   27630   27632   27629   27627   27630   27633
   27630   27633   27636   27637   27630   27633   27636   27638
   27630   27633   27636   27639   27631   27630   27633   27634
   27631   27630   27633   27635   27631   27630   27633   27636
   27632   27630   27633   27634   27632   27630   27633   27635
   27632   27630   27633   27636   27633   27636   27639   27640
   27633   27636   27639   27641   27633   27636   27639   27642
   27634   27633   27636   27637   27634   27633   27636   27638
   27634   27633   27636   27639   27635   27633   27636   27637
   27635   27633   27636   27638   27635   27633   27636   27639
   27636   27639   27642   27643   27636   27639   27642   27644
   27636   27639   27642   27645   27637   27636   27639   27640
   27637   27636   27639   27641   27637   27636   27639   27642
   27638   27636   27639   27640   27638   27636   27639   27641
   27638   27636   27639   27642   27640   27639   27642   27643
   27640   27639   27642   27644   27640   27639   27642   27645
   27641   27639   27642   27643   27641   27639   27642   27644
   27641   27639   27642   27645   27646   27659   27662   27663
   27646   27659   27662   27664   27646   27659   27662   27669
   27647   27646   27651   27652   27647   27646   27651   27653
   27647   27646   27651   27654   27647   27646   27655   27656
   27647   27646   27655   27657   27647   27646   27655   27658
   27647   27646   27659   27660   27647   27646   27659   27661
   27647   27646   27659   27662   27651   27646   27647   27648
   27651   27646   27647   27649   27651   27646   27647   27650
   27651   27646   27655   27656   27651   27646   27655   27657
   27651   27646   27655   27658   27651   27646   27659   27660
   27651   27646   27659   27661   27651   27646   27659   27662
   27655   27646   27647   27648   27655   27646   27647   27649
   27655   27646   27647   27650   27655   27646   27651   27652
   27655   27646   27651   27653   27655   27646   27651   27654
   27655   27646   27659   27660   27655   27646   27659   27661
   27655   27646   27659   27662   27659   27646   27647   27648
   27659   27646   27647   27649   27659   27646   27647   27650
   27659   27646   27651   27652   27659   27646   27651   27653
   27659   27646   27651   27654   27659   27646   27655   27656
   27659   27646   27655   27657   27659   27646   27655   27658
   27659   27662   27669   27665   27660   27659   27662   27663
   27660   27659   27662   27664   27660   27659   27662   27669
   27661   27659   27662   27663   27661   27659   27662   27664
   27661   27659   27662   27669   27663   27662   27669   27665
   27664   27662   27669   27665   27665   27668   27670   27671
   27665   27668   27670   27672   27665   27668   27670   27673
   27666   27665   27669   27662   27666   27665   27668   27670
   27667   27665   27669   27662   27667   27665   27668   27670
   27668   27665   27669   27662   27668   27670   27673   27674
   27668   27670   27673   27681   27668   27670   27673   27675
   27669   27665   27668   27670   27670   27673   27681   27682
   27670   27673   27681   27683   27670   27673   27681   27684
   27670   27673   27675   27676   27671   27670   27673   27674
   27671   27670   27673   27681   27671   27670   27673   27675
   27672   27670   27673   27674   27672   27670   27673   27681
   27672   27670   27673   27675   27673   27681   27684   27685
   27673   27675   27676   27678   27673   27675   27676   27677
   27674   27673   27681   27682   27674   27673   27681   27683
   27674   27673   27681   27684   27674   27673   27675   27676
   27675   27676   27678   27679   27675   27676   27678   27680
   27675   27676   27678   27690   27675   27673   27681   27682
   27675   27673   27681   27683   27675   27673   27681   27684
   27676   27678   27690   27691   27676   27678   27690   27692
   27676   27678   27690   27693   27677   27676   27678   27679
   27677   27676   27678   27680   27677   27676   27678   27690
   27678   27690   27693   27694   27678   27690   27693   27695
   27678   27690   27693   27696   27679   27678   27690   27691
   27679   27678   27690   27692   27679   27678   27690   27693
   27680   27678   27690   27691   27680   27678   27690   27692
   27680   27678   27690   27693   27681   27673   27675   27676
   27681   27684   27685   27687   27681   27684   27685   27686
   27682   27681   27684   27685   27683   27681   27684   27685
   27684   27685   27687   27688   27684   27685   27687   27689
   27684   27685   27687   27727   27685   27687   27727   27728
   27685   27687   27727   27729   27685   27687   27727   27730
   27686   27685   27687   27688   27686   27685   27687   27689
   27686   27685   27687   27727   27687   27727   27730   27731
   27687   27727   27730   27732   27687   27727   27730   27733
   27688   27687   27727   27728   27688   27687   27727   27729
   27688   27687   27727   27730   27689   27687   27727   27728
   27689   27687   27727   27729   27689   27687   27727   27730
   27690   27693   27696   27697   27690   27693   27696   27698
   27690   27693   27696   27699   27691   27690   27693   27694
   27691   27690   27693   27695   27691   27690   27693   27696
   27692   27690   27693   27694   27692   27690   27693   27695
   27692   27690   27693   27696   27693   27696   27699   27700
   27693   27696   27699   27701   27693   27696   27699   27702
   27694   27693   27696   27697   27694   27693   27696   27698
   27694   27693   27696   27699   27695   27693   27696   27697
   27695   27693   27696   27698   27695   27693   27696   27699
   27696   27699   27702   27703   27696   27699   27702   27704
   27696   27699   27702   27705   27697   27696   27699   27700
   27697   27696   27699   27701   27697   27696   27699   27702
   27698   27696   27699   27700   27698   27696   27699   27701
   27698   27696   27699   27702   27699   27702   27705   27706
   27699   27702   27705   27707   27699   27702   27705   27708
   27700   27699   27702   27703   27700   27699   27702   27704
   27700   27699   27702   27705   27701   27699   27702   27703
   27701   27699   27702   27704   27701   27699   27702   27705
   27702   27705   27708   27709   27702   27705   27708   27710
   27702   27705   27708   27711   27703   27702   27705   27706
   27703   27702   27705   27707   27703   27702   27705   27708
   27704   27702   27705   27706   27704   27702   27705   27707
   27704   27702   27705   27708   27705   27708   27711   27712
   27705   27708   27711   27713   27705   27708   27711   27714
   27706   27705   27708   27709   27706   27705   27708   27710
   27706   27705   27708   27711   27707   27705   27708   27709
   27707   27705   27708   27710   27707   27705   27708   27711
   27708   27711   27714   27715   27708   27711   27714   27716
   27708   27711   27714   27717   27709   27708   27711   27712
   27709   27708   27711   27713   27709   27708   27711   27714
   27710   27708   27711   27712   27710   27708   27711   27713
   27710   27708   27711   27714   27711   27714   27717   27718
   27711   27714   27717   27719   27711   27714   27717   27720
   27712   27711   27714   27715   27712   27711   27714   27716
   27712   27711   27714   27717   27713   27711   27714   27715
   27713   27711   27714   27716   27713   27711   27714   27717
   27714   27717   27720   27721   27714   27717   27720   27722
   27714   27717   27720   27723   27715   27714   27717   27718
   27715   27714   27717   27719   27715   27714   27717   27720
   27716   27714   27717   27718   27716   27714   27717   27719
   27716   27714   27717   27720   27717   27720   27723   27724
   27717   27720   27723   27725   27717   27720   27723   27726
   27718   27717   27720   27721   27718   27717   27720   27722
   27718   27717   27720   27723   27719   27717   27720   27721
   27719   27717   27720   27722   27719   27717   27720   27723
   27721   27720   27723   27724   27721   27720   27723   27725
   27721   27720   27723   27726   27722   27720   27723   27724
   27722   27720   27723   27725   27722   27720   27723   27726
   27727   27730   27733   27734   27727   27730   27733   27735
   27727   27730   27733   27736   27728   27727   27730   27731
   27728   27727   27730   27732   27728   27727   27730   27733
   27729   27727   27730   27731   27729   27727   27730   27732
   27729   27727   27730   27733   27730   27733   27736   27737
   27730   27733   27736   27738   27730   27733   27736   27739
   27731   27730   27733   27734   27731   27730   27733   27735
   27731   27730   27733   27736   27732   27730   27733   27734
   27732   27730   27733   27735   27732   27730   27733   27736
   27733   27736   27739   27740   27733   27736   27739   27741
   27733   27736   27739   27742   27734   27733   27736   27737
   27734   27733   27736   27738   27734   27733   27736   27739
   27735   27733   27736   27737   27735   27733   27736   27738
   27735   27733   27736   27739   27736   27739   27742   27743
   27736   27739   27742   27744   27736   27739   27742   27745
   27737   27736   27739   27740   27737   27736   27739   27741
   27737   27736   27739   27742   27738   27736   27739   27740
   27738   27736   27739   27741   27738   27736   27739   27742
   27739   27742   27745   27746   27739   27742   27745   27747
   27739   27742   27745   27748   27740   27739   27742   27743
   27740   27739   27742   27744   27740   27739   27742   27745
   27741   27739   27742   27743   27741   27739   27742   27744
   27741   27739   27742   27745   27742   27745   27748   27749
   27742   27745   27748   27750   27742   27745   27748   27751
   27743   27742   27745   27746   27743   27742   27745   27747
   27743   27742   27745   27748   27744   27742   27745   27746
   27744   27742   27745   27747   27744   27742   27745   27748
   27745   27748   27751   27752   27745   27748   27751   27753
   27745   27748   27751   27754   27746   27745   27748   27749
   27746   27745   27748   27750   27746   27745   27748   27751
   27747   27745   27748   27749   27747   27745   27748   27750
   27747   27745   27748   27751   27748   27751   27754   27755
   27748   27751   27754   27756   27748   27751   27754   27757
   27749   27748   27751   27752   27749   27748   27751   27753
   27749   27748   27751   27754   27750   27748   27751   27752
   27750   27748   27751   27753   27750   27748   27751   27754
   27751   27754   27757   27758   27751   27754   27757   27759
   27751   27754   27757   27760   27752   27751   27754   27755
   27752   27751   27754   27756   27752   27751   27754   27757
   27753   27751   27754   27755   27753   27751   27754   27756
   27753   27751   27754   27757   27754   27757   27760   27761
   27754   27757   27760   27762   27754   27757   27760   27763
   27755   27754   27757   27758   27755   27754   27757   27759
   27755   27754   27757   27760   27756   27754   27757   27758
   27756   27754   27757   27759   27756   27754   27757   27760
   27758   27757   27760   27761   27758   27757   27760   27762
   27758   27757   27760   27763   27759   27757   27760   27761
   27759   27757   27760   27762   27759   27757   27760   27763
   27764   27777   27780   27781   27764   27777   27780   27782
   27764   27777   27780   27787   27765   27764   27769   27770
   27765   27764   27769   27771   27765   27764   27769   27772
   27765   27764   27773   27774   27765   27764   27773   27775
   27765   27764   27773   27776   27765   27764   27777   27778
   27765   27764   27777   27779   27765   27764   27777   27780
   27769   27764   27765   27766   27769   27764   27765   27767
   27769   27764   27765   27768   27769   27764   27773   27774
   27769   27764   27773   27775   27769   27764   27773   27776
   27769   27764   27777   27778   27769   27764   27777   27779
   27769   27764   27777   27780   27773   27764   27765   27766
   27773   27764   27765   27767   27773   27764   27765   27768
   27773   27764   27769   27770   27773   27764   27769   27771
   27773   27764   27769   27772   27773   27764   27777   27778
   27773   27764   27777   27779   27773   27764   27777   27780
   27777   27764   27765   27766   27777   27764   27765   27767
   27777   27764   27765   27768   27777   27764   27769   27770
   27777   27764   27769   27771   27777   27764   27769   27772
   27777   27764   27773   27774   27777   27764   27773   27775
   27777   27764   27773   27776   27777   27780   27787   27783
   27778   27777   27780   27781   27778   27777   27780   27782
   27778   27777   27780   27787   27779   27777   27780   27781
   27779   27777   27780   27782   27779   27777   27780   27787
   27781   27780   27787   27783   27782   27780   27787   27783
   27783   27786   27788   27789   27783   27786   27788   27790
   27783   27786   27788   27791   27784   27783   27787   27780
   27784   27783   27786   27788   27785   27783   27787   27780
   27785   27783   27786   27788   27786   27783   27787   27780
   27786   27788   27791   27792   27786   27788   27791   27799
   27786   27788   27791   27793   27787   27783   27786   27788
   27788   27791   27799   27800   27788   27791   27799   27801
   27788   27791   27799   27802   27788   27791   27793   27794
   27789   27788   27791   27792   27789   27788   27791   27799
   27789   27788   27791   27793   27790   27788   27791   27792
   27790   27788   27791   27799   27790   27788   27791   27793
   27791   27799   27802   27803   27791   27793   27794   27796
   27791   27793   27794   27795   27792   27791   27799   27800
   27792   27791   27799   27801   27792   27791   27799   27802
   27792   27791   27793   27794   27793   27794   27796   27797
   27793   27794   27796   27798   27793   27794   27796   27808
   27793   27791   27799   27800   27793   27791   27799   27801
   27793   27791   27799   27802   27794   27796   27808   27809
   27794   27796   27808   27810   27794   27796   27808   27811
   27795   27794   27796   27797   27795   27794   27796   27798
   27795   27794   27796   27808   27796   27808   27811   27812
   27796   27808   27811   27813   27796   27808   27811   27814
   27797   27796   27808   27809   27797   27796   27808   27810
   27797   27796   27808   27811   27798   27796   27808   27809
   27798   27796   27808   27810   27798   27796   27808   27811
   27799   27791   27793   27794   27799   27802   27803   27805
   27799   27802   27803   27804   27800   27799   27802   27803
   27801   27799   27802   27803   27802   27803   27805   27806
   27802   27803   27805   27807   27802   27803   27805   27845
   27803   27805   27845   27846   27803   27805   27845   27847
   27803   27805   27845   27848   27804   27803   27805   27806
   27804   27803   27805   27807   27804   27803   27805   27845
   27805   27845   27848   27849   27805   27845   27848   27850
   27805   27845   27848   27851   27806   27805   27845   27846
   27806   27805   27845   27847   27806   27805   27845   27848
   27807   27805   27845   27846   27807   27805   27845   27847
   27807   27805   27845   27848   27808   27811   27814   27815
   27808   27811   27814   27816   27808   27811   27814   27817
   27809   27808   27811   27812   27809   27808   27811   27813
   27809   27808   27811   27814   27810   27808   27811   27812
   27810   27808   27811   27813   27810   27808   27811   27814
   27811   27814   27817   27818   27811   27814   27817   27819
   27811   27814   27817   27820   27812   27811   27814   27815
   27812   27811   27814   27816   27812   27811   27814   27817
   27813   27811   27814   27815   27813   27811   27814   27816
   27813   27811   27814   27817   27814   27817   27820   27821
   27814   27817   27820   27822   27814   27817   27820   27823
   27815   27814   27817   27818   27815   27814   27817   27819
   27815   27814   27817   27820   27816   27814   27817   27818
   27816   27814   27817   27819   27816   27814   27817   27820
   27817   27820   27823   27824   27817   27820   27823   27825
   27817   27820   27823   27826   27818   27817   27820   27821
   27818   27817   27820   27822   27818   27817   27820   27823
   27819   27817   27820   27821   27819   27817   27820   27822
   27819   27817   27820   27823   27820   27823   27826   27827
   27820   27823   27826   27828   27820   27823   27826   27829
   27821   27820   27823   27824   27821   27820   27823   27825
   27821   27820   27823   27826   27822   27820   27823   27824
   27822   27820   27823   27825   27822   27820   27823   27826
   27823   27826   27829   27830   27823   27826   27829   27831
   27823   27826   27829   27832   27824   27823   27826   27827
   27824   27823   27826   27828   27824   27823   27826   27829
   27825   27823   27826   27827   27825   27823   27826   27828
   27825   27823   27826   27829   27826   27829   27832   27833
   27826   27829   27832   27834   27826   27829   27832   27835
   27827   27826   27829   27830   27827   27826   27829   27831
   27827   27826   27829   27832   27828   27826   27829   27830
   27828   27826   27829   27831   27828   27826   27829   27832
   27829   27832   27835   27836   27829   27832   27835   27837
   27829   27832   27835   27838   27830   27829   27832   27833
   27830   27829   27832   27834   27830   27829   27832   27835
   27831   27829   27832   27833   27831   27829   27832   27834
   27831   27829   27832   27835   27832   27835   27838   27839
   27832   27835   27838   27840   27832   27835   27838   27841
   27833   27832   27835   27836   27833   27832   27835   27837
   27833   27832   27835   27838   27834   27832   27835   27836
   27834   27832   27835   27837   27834   27832   27835   27838
   27835   27838   27841   27842   27835   27838   27841   27843
   27835   27838   27841   27844   27836   27835   27838   27839
   27836   27835   27838   27840   27836   27835   27838   27841
   27837   27835   27838   27839   27837   27835   27838   27840
   27837   27835   27838   27841   27839   27838   27841   27842
   27839   27838   27841   27843   27839   27838   27841   27844
   27840   27838   27841   27842   27840   27838   27841   27843
   27840   27838   27841   27844   27845   27848   27851   27852
   27845   27848   27851   27853   27845   27848   27851   27854
   27846   27845   27848   27849   27846   27845   27848   27850
   27846   27845   27848   27851   27847   27845   27848   27849
   27847   27845   27848   27850   27847   27845   27848   27851
   27848   27851   27854   27855   27848   27851   27854   27856
   27848   27851   27854   27857   27849   27848   27851   27852
   27849   27848   27851   27853   27849   27848   27851   27854
   27850   27848   27851   27852   27850   27848   27851   27853
   27850   27848   27851   27854   27851   27854   27857   27858
   27851   27854   27857   27859   27851   27854   27857   27860
   27852   27851   27854   27855   27852   27851   27854   27856
   27852   27851   27854   27857   27853   27851   27854   27855
   27853   27851   27854   27856   27853   27851   27854   27857
   27854   27857   27860   27861   27854   27857   27860   27862
   27854   27857   27860   27863   27855   27854   27857   27858
   27855   27854   27857   27859   27855   27854   27857   27860
   27856   27854   27857   27858   27856   27854   27857   27859
   27856   27854   27857   27860   27857   27860   27863   27864
   27857   27860   27863   27865   27857   27860   27863   27866
   27858   27857   27860   27861   27858   27857   27860   27862
   27858   27857   27860   27863   27859   27857   27860   27861
   27859   27857   27860   27862   27859   27857   27860   27863
   27860   27863   27866   27867   27860   27863   27866   27868
   27860   27863   27866   27869   27861   27860   27863   27864
   27861   27860   27863   27865   27861   27860   27863   27866
   27862   27860   27863   27864   27862   27860   27863   27865
   27862   27860   27863   27866   27863   27866   27869   27870
   27863   27866   27869   27871   27863   27866   27869   27872
   27864   27863   27866   27867   27864   27863   27866   27868
   27864   27863   27866   27869   27865   27863   27866   27867
   27865   27863   27866   27868   27865   27863   27866   27869
   27866   27869   27872   27873   27866   27869   27872   27874
   27866   27869   27872   27875   27867   27866   27869   27870
   27867   27866   27869   27871   27867   27866   27869   27872
   27868   27866   27869   27870   27868   27866   27869   27871
   27868   27866   27869   27872   27869   27872   27875   27876
   27869   27872   27875   27877   27869   27872   27875   27878
   27870   27869   27872   27873   27870   27869   27872   27874
   27870   27869   27872   27875   27871   27869   27872   27873
   27871   27869   27872   27874   27871   27869   27872   27875
   27872   27875   27878   27879   27872   27875   27878   27880
   27872   27875   27878   27881   27873   27872   27875   27876
   27873   27872   27875   27877   27873   27872   27875   27878
   27874   27872   27875   27876   27874   27872   27875   27877
   27874   27872   27875   27878   27876   27875   27878   27879
   27876   27875   27878   27880   27876   27875   27878   27881
   27877   27875   27878   27879   27877   27875   27878   27880
   27877   27875   27878   27881   27882   27895   27898   27899
   27882   27895   27898   27900   27882   27895   27898   27905
   27883   27882   27887   27888   27883   27882   27887   27889
   27883   27882   27887   27890   27883   27882   27891   27892
   27883   27882   27891   27893   27883   27882   27891   27894
   27883   27882   27895   27896   27883   27882   27895   27897
   27883   27882   27895   27898   27887   27882   27883   27884
   27887   27882   27883   27885   27887   27882   27883   27886
   27887   27882   27891   27892   27887   27882   27891   27893
   27887   27882   27891   27894   27887   27882   27895   27896
   27887   27882   27895   27897   27887   27882   27895   27898
   27891   27882   27883   27884   27891   27882   27883   27885
   27891   27882   27883   27886   27891   27882   27887   27888
   27891   27882   27887   27889   27891   27882   27887   27890
   27891   27882   27895   27896   27891   27882   27895   27897
   27891   27882   27895   27898   27895   27882   27883   27884
   27895   27882   27883   27885   27895   27882   27883   27886
   27895   27882   27887   27888   27895   27882   27887   27889
   27895   27882   27887   27890   27895   27882   27891   27892
   27895   27882   27891   27893   27895   27882   27891   27894
   27895   27898   27905   27901   27896   27895   27898   27899
   27896   27895   27898   27900   27896   27895   27898   27905
   27897   27895   27898   27899   27897   27895   27898   27900
   27897   27895   27898   27905   27899   27898   27905   27901
   27900   27898   27905   27901   27901   27904   27906   27907
   27901   27904   27906   27908   27901   27904   27906   27909
   27902   27901   27905   27898   27902   27901   27904   27906
   27903   27901   27905   27898   27903   27901   27904   27906
   27904   27901   27905   27898   27904   27906   27909   27910
   27904   27906   27909   27917   27904   27906   27909   27911
   27905   27901   27904   27906   27906   27909   27917   27918
   27906   27909   27917   27919   27906   27909   27917   27920
   27906   27909   27911   27912   27907   27906   27909   27910
   27907   27906   27909   27917   27907   27906   27909   27911
   27908   27906   27909   27910   27908   27906   27909   27917
   27908   27906   27909   27911   27909   27917   27920   27921
   27909   27911   27912   27914   27909   27911   27912   27913
   27910   27909   27917   27918   27910   27909   27917   27919
   27910   27909   27917   27920   27910   27909   27911   27912
   27911   27912   27914   27915   27911   27912   27914   27916
   27911   27912   27914   27926   27911   27909   27917   27918
   27911   27909   27917   27919   27911   27909   27917   27920
   27912   27914   27926   27927   27912   27914   27926   27928
   27912   27914   27926   27929   27913   27912   27914   27915
   27913   27912   27914   27916   27913   27912   27914   27926
   27914   27926   27929   27930   27914   27926   27929   27931
   27914   27926   27929   27932   27915   27914   27926   27927
   27915   27914   27926   27928   27915   27914   27926   27929
   27916   27914   27926   27927   27916   27914   27926   27928
   27916   27914   27926   27929   27917   27909   27911   27912
   27917   27920   27921   27923   27917   27920   27921   27922
   27918   27917   27920   27921   27919   27917   27920   27921
   27920   27921   27923   27924   27920   27921   27923   27925
   27920   27921   27923   27963   27921   27923   27963   27964
   27921   27923   27963   27965   27921   27923   27963   27966
   27922   27921   27923   27924   27922   27921   27923   27925
   27922   27921   27923   27963   27923   27963   27966   27967
   27923   27963   27966   27968   27923   27963   27966   27969
   27924   27923   27963   27964   27924   27923   27963   27965
   27924   27923   27963   27966   27925   27923   27963   27964
   27925   27923   27963   27965   27925   27923   27963   27966
   27926   27929   27932   27933   27926   27929   27932   27934
   27926   27929   27932   27935   27927   27926   27929   27930
   27927   27926   27929   27931   27927   27926   27929   27932
   27928   27926   27929   27930   27928   27926   27929   27931
   27928   27926   27929   27932   27929   27932   27935   27936
   27929   27932   27935   27937   27929   27932   27935   27938
   27930   27929   27932   27933   27930   27929   27932   27934
   27930   27929   27932   27935   27931   27929   27932   27933
   27931   27929   27932   27934   27931   27929   27932   27935
   27932   27935   27938   27939   27932   27935   27938   27940
   27932   27935   27938   27941   27933   27932   27935   27936
   27933   27932   27935   27937   27933   27932   27935   27938
   27934   27932   27935   27936   27934   27932   27935   27937
   27934   27932   27935   27938   27935   27938   27941   27942
   27935   27938   27941   27943   27935   27938   27941   27944
   27936   27935   27938   27939   27936   27935   27938   27940
   27936   27935   27938   27941   27937   27935   27938   27939
   27937   27935   27938   27940   27937   27935   27938   27941
   27938   27941   27944   27945   27938   27941   27944   27946
   27938   27941   27944   27947   27939   27938   27941   27942
   27939   27938   27941   27943   27939   27938   27941   27944
   27940   27938   27941   27942   27940   27938   27941   27943
   27940   27938   27941   27944   27941   27944   27947   27948
   27941   27944   27947   27949   27941   27944   27947   27950
   27942   27941   27944   27945   27942   27941   27944   27946
   27942   27941   27944   27947   27943   27941   27944   27945
   27943   27941   27944   27946   27943   27941   27944   27947
   27944   27947   27950   27951   27944   27947   27950   27952
   27944   27947   27950   27953   27945   27944   27947   27948
   27945   27944   27947   27949   27945   27944   27947   27950
   27946   27944   27947   27948   27946   27944   27947   27949
   27946   27944   27947   27950   27947   27950   27953   27954
   27947   27950   27953   27955   27947   27950   27953   27956
   27948   27947   27950   27951   27948   27947   27950   27952
   27948   27947   27950   27953   27949   27947   27950   27951
   27949   27947   27950   27952   27949   27947   27950   27953
   27950   27953   27956   27957   27950   27953   27956   27958
   27950   27953   27956   27959   27951   27950   27953   27954
   27951   27950   27953   27955   27951   27950   27953   27956
   27952   27950   27953   27954   27952   27950   27953   27955
   27952   27950   27953   27956   27953   27956   27959   27960
   27953   27956   27959   27961   27953   27956   27959   27962
   27954   27953   27956   27957   27954   27953   27956   27958
   27954   27953   27956   27959   27955   27953   27956   27957
   27955   27953   27956   27958   27955   27953   27956   27959
   27957   27956   27959   27960   27957   27956   27959   27961
   27957   27956   27959   27962   27958   27956   27959   27960
   27958   27956   27959   27961   27958   27956   27959   27962
   27963   27966   27969   27970   27963   27966   27969   27971
   27963   27966   27969   27972   27964   27963   27966   27967
   27964   27963   27966   27968   27964   27963   27966   27969
   27965   27963   27966   27967   27965   27963   27966   27968
   27965   27963   27966   27969   27966   27969   27972   27973
   27966   27969   27972   27974   27966   27969   27972   27975
   27967   27966   27969   27970   27967   27966   27969   27971
   27967   27966   27969   27972   27968   27966   27969   27970
   27968   27966   27969   27971   27968   27966   27969   27972
   27969   27972   27975   27976   27969   27972   27975   27977
   27969   27972   27975   27978   27970   27969   27972   27973
   27970   27969   27972   27974   27970   27969   27972   27975
   27971   27969   27972   27973   27971   27969   27972   27974
   27971   27969   27972   27975   27972   27975   27978   27979
   27972   27975   27978   27980   27972   27975   27978   27981
   27973   27972   27975   27976   27973   27972   27975   27977
   27973   27972   27975   27978   27974   27972   27975   27976
   27974   27972   27975   27977   27974   27972   27975   27978
   27975   27978   27981   27982   27975   27978   27981   27983
   27975   27978   27981   27984   27976   27975   27978   27979
   27976   27975   27978   27980   27976   27975   27978   27981
   27977   27975   27978   27979   27977   27975   27978   27980
   27977   27975   27978   27981   27978   27981   27984   27985
   27978   27981   27984   27986   27978   27981   27984   27987
   27979   27978   27981   27982   27979   27978   27981   27983
   27979   27978   27981   27984   27980   27978   27981   27982
   27980   27978   27981   27983   27980   27978   27981   27984
   27981   27984   27987   27988   27981   27984   27987   27989
   27981   27984   27987   27990   27982   27981   27984   27985
   27982   27981   27984   27986   27982   27981   27984   27987
   27983   27981   27984   27985   27983   27981   27984   27986
   27983   27981   27984   27987   27984   27987   27990   27991
   27984   27987   27990   27992   27984   27987   27990   27993
   27985   27984   27987   27988   27985   27984   27987   27989
   27985   27984   27987   27990   27986   27984   27987   27988
   27986   27984   27987   27989   27986   27984   27987   27990
   27987   27990   27993   27994   27987   27990   27993   27995
   27987   27990   27993   27996   27988   27987   27990   27991
   27988   27987   27990   27992   27988   27987   27990   27993
   27989   27987   27990   27991   27989   27987   27990   27992
   27989   27987   27990   27993   27990   27993   27996   27997
   27990   27993   27996   27998   27990   27993   27996   27999
   27991   27990   27993   27994   27991   27990   27993   27995
   27991   27990   27993   27996   27992   27990   27993   27994
   27992   27990   27993   27995   27992   27990   27993   27996
   27994   27993   27996   27997   27994   27993   27996   27998
   27994   27993   27996   27999   27995   27993   27996   27997
   27995   27993   27996   27998   27995   27993   27996   27999
   28000   28013   28016   28017   28000   28013   28016   28018
   28000   28013   28016   28023   28001   28000   28005   28006
   28001   28000   28005   28007   28001   28000   28005   28008
   28001   28000   28009   28010   28001   28000   28009   28011
   28001   28000   28009   28012   28001   28000   28013   28014
   28001   28000   28013   28015   28001   28000   28013   28016
   28005   28000   28001   28002   28005   28000   28001   28003
   28005   28000   28001   28004   28005   28000   28009   28010
   28005   28000   28009   28011   28005   28000   28009   28012
   28005   28000   28013   28014   28005   28000   28013   28015
   28005   28000   28013   28016   28009   28000   28001   28002
   28009   28000   28001   28003   28009   28000   28001   28004
   28009   28000   28005   28006   28009   28000   28005   28007
   28009   28000   28005   28008   28009   28000   28013   28014
   28009   28000   28013   28015   28009   28000   28013   28016
   28013   28000   28001   28002   28013   28000   28001   28003
   28013   28000   28001   28004   28013   28000   28005   28006
   28013   28000   28005   28007   28013   28000   28005   28008
   28013   28000   28009   28010   28013   28000   28009   28011
   28013   28000   28009   28012   28013   28016   28023   28019
   28014   28013   28016   28017   28014   28013   28016   28018
   28014   28013   28016   28023   28015   28013   28016   28017
   28015   28013   28016   28018   28015   28013   28016   28023
   28017   28016   28023   28019   28018   28016   28023   28019
   28019   28022   28024   28025   28019   28022   28024   28026
   28019   28022   28024   28027   28020   28019   28023   28016
   28020   28019   28022   28024   28021   28019   28023   28016
   28021   28019   28022   28024   28022   28019   28023   28016
   28022   28024   28027   28028   28022   28024   28027   28035
   28022   28024   28027   28029   28023   28019   28022   28024
   28024   28027   28035   28036   28024   28027   28035   28037
   28024   28027   28035   28038   28024   28027   28029   28030
   28025   28024   28027   28028   28025   28024   28027   28035
   28025   28024   28027   28029   28026   28024   28027   28028
   28026   28024   28027   28035   28026   28024   28027   28029
   28027   28035   28038   28039   28027   28029   28030   28032
   28027   28029   28030   28031   28028   28027   28035   28036
   28028   28027   28035   28037   28028   28027   28035   28038
   28028   28027   28029   28030   28029   28030   28032   28033
   28029   28030   28032   28034   28029   28030   28032   28044
   28029   28027   28035   28036   28029   28027   28035   28037
   28029   28027   28035   28038   28030   28032   28044   28045
   28030   28032   28044   28046   28030   28032   28044   28047
   28031   28030   28032   28033   28031   28030   28032   28034
   28031   28030   28032   28044   28032   28044   28047   28048
   28032   28044   28047   28049   28032   28044   28047   28050
   28033   28032   28044   28045   28033   28032   28044   28046
   28033   28032   28044   28047   28034   28032   28044   28045
   28034   28032   28044   28046   28034   28032   28044   28047
   28035   28027   28029   28030   28035   28038   28039   28041
   28035   28038   28039   28040   28036   28035   28038   28039
   28037   28035   28038   28039   28038   28039   28041   28042
   28038   28039   28041   28043   28038   28039   28041   28081
   28039   28041   28081   28082   28039   28041   28081   28083
   28039   28041   28081   28084   28040   28039   28041   28042
   28040   28039   28041   28043   28040   28039   28041   28081
   28041   28081   28084   28085   28041   28081   28084   28086
   28041   28081   28084   28087   28042   28041   28081   28082
   28042   28041   28081   28083   28042   28041   28081   28084
   28043   28041   28081   28082   28043   28041   28081   28083
   28043   28041   28081   28084   28044   28047   28050   28051
   28044   28047   28050   28052   28044   28047   28050   28053
   28045   28044   28047   28048   28045   28044   28047   28049
   28045   28044   28047   28050   28046   28044   28047   28048
   28046   28044   28047   28049   28046   28044   28047   28050
   28047   28050   28053   28054   28047   28050   28053   28055
   28047   28050   28053   28056   28048   28047   28050   28051
   28048   28047   28050   28052   28048   28047   28050   28053
   28049   28047   28050   28051   28049   28047   28050   28052
   28049   28047   28050   28053   28050   28053   28056   28057
   28050   28053   28056   28058   28050   28053   28056   28059
   28051   28050   28053   28054   28051   28050   28053   28055
   28051   28050   28053   28056   28052   28050   28053   28054
   28052   28050   28053   28055   28052   28050   28053   28056
   28053   28056   28059   28060   28053   28056   28059   28061
   28053   28056   28059   28062   28054   28053   28056   28057
   28054   28053   28056   28058   28054   28053   28056   28059
   28055   28053   28056   28057   28055   28053   28056   28058
   28055   28053   28056   28059   28056   28059   28062   28063
   28056   28059   28062   28064   28056   28059   28062   28065
   28057   28056   28059   28060   28057   28056   28059   28061
   28057   28056   28059   28062   28058   28056   28059   28060
   28058   28056   28059   28061   28058   28056   28059   28062
   28059   28062   28065   28066   28059   28062   28065   28067
   28059   28062   28065   28068   28060   28059   28062   28063
   28060   28059   28062   28064   28060   28059   28062   28065
   28061   28059   28062   28063   28061   28059   28062   28064
   28061   28059   28062   28065   28062   28065   28068   28069
   28062   28065   28068   28070   28062   28065   28068   28071
   28063   28062   28065   28066   28063   28062   28065   28067
   28063   28062   28065   28068   28064   28062   28065   28066
   28064   28062   28065   28067   28064   28062   28065   28068
   28065   28068   28071   28072   28065   28068   28071   28073
   28065   28068   28071   28074   28066   28065   28068   28069
   28066   28065   28068   28070   28066   28065   28068   28071
   28067   28065   28068   28069   28067   28065   28068   28070
   28067   28065   28068   28071   28068   28071   28074   28075
   28068   28071   28074   28076   28068   28071   28074   28077
   28069   28068   28071   28072   28069   28068   28071   28073
   28069   28068   28071   28074   28070   28068   28071   28072
   28070   28068   28071   28073   28070   28068   28071   28074
   28071   28074   28077   28078   28071   28074   28077   28079
   28071   28074   28077   28080   28072   28071   28074   28075
   28072   28071   28074   28076   28072   28071   28074   28077
   28073   28071   28074   28075   28073   28071   28074   28076
   28073   28071   28074   28077   28075   28074   28077   28078
   28075   28074   28077   28079   28075   28074   28077   28080
   28076   28074   28077   28078   28076   28074   28077   28079
   28076   28074   28077   28080   28081   28084   28087   28088
   28081   28084   28087   28089   28081   28084   28087   28090
   28082   28081   28084   28085   28082   28081   28084   28086
   28082   28081   28084   28087   28083   28081   28084   28085
   28083   28081   28084   28086   28083   28081   28084   28087
   28084   28087   28090   28091   28084   28087   28090   28092
   28084   28087   28090   28093   28085   28084   28087   28088
   28085   28084   28087   28089   28085   28084   28087   28090
   28086   28084   28087   28088   28086   28084   28087   28089
   28086   28084   28087   28090   28087   28090   28093   28094
   28087   28090   28093   28095   28087   28090   28093   28096
   28088   28087   28090   28091   28088   28087   28090   28092
   28088   28087   28090   28093   28089   28087   28090   28091
   28089   28087   28090   28092   28089   28087   28090   28093
   28090   28093   28096   28097   28090   28093   28096   28098
   28090   28093   28096   28099   28091   28090   28093   28094
   28091   28090   28093   28095   28091   28090   28093   28096
   28092   28090   28093   28094   28092   28090   28093   28095
   28092   28090   28093   28096   28093   28096   28099   28100
   28093   28096   28099   28101   28093   28096   28099   28102
   28094   28093   28096   28097   28094   28093   28096   28098
   28094   28093   28096   28099   28095   28093   28096   28097
   28095   28093   28096   28098   28095   28093   28096   28099
   28096   28099   28102   28103   28096   28099   28102   28104
   28096   28099   28102   28105   28097   28096   28099   28100
   28097   28096   28099   28101   28097   28096   28099   28102
   28098   28096   28099   28100   28098   28096   28099   28101
   28098   28096   28099   28102   28099   28102   28105   28106
   28099   28102   28105   28107   28099   28102   28105   28108
   28100   28099   28102   28103   28100   28099   28102   28104
   28100   28099   28102   28105   28101   28099   28102   28103
   28101   28099   28102   28104   28101   28099   28102   28105
   28102   28105   28108   28109   28102   28105   28108   28110
   28102   28105   28108   28111   28103   28102   28105   28106
   28103   28102   28105   28107   28103   28102   28105   28108
   28104   28102   28105   28106   28104   28102   28105   28107
   28104   28102   28105   28108   28105   28108   28111   28112
   28105   28108   28111   28113   28105   28108   28111   28114
   28106   28105   28108   28109   28106   28105   28108   28110
   28106   28105   28108   28111   28107   28105   28108   28109
   28107   28105   28108   28110   28107   28105   28108   28111
   28108   28111   28114   28115   28108   28111   28114   28116
   28108   28111   28114   28117   28109   28108   28111   28112
   28109   28108   28111   28113   28109   28108   28111   28114
   28110   28108   28111   28112   28110   28108   28111   28113
   28110   28108   28111   28114   28112   28111   28114   28115
   28112   28111   28114   28116   28112   28111   28114   28117
   28113   28111   28114   28115   28113   28111   28114   28116
   28113   28111   28114   28117   28118   28131   28134   28135
   28118   28131   28134   28136   28118   28131   28134   28141
   28119   28118   28123   28124   28119   28118   28123   28125
   28119   28118   28123   28126   28119   28118   28127   28128
   28119   28118   28127   28129   28119   28118   28127   28130
   28119   28118   28131   28132   28119   28118   28131   28133
   28119   28118   28131   28134   28123   28118   28119   28120
   28123   28118   28119   28121   28123   28118   28119   28122
   28123   28118   28127   28128   28123   28118   28127   28129
   28123   28118   28127   28130   28123   28118   28131   28132
   28123   28118   28131   28133   28123   28118   28131   28134
   28127   28118   28119   28120   28127   28118   28119   28121
   28127   28118   28119   28122   28127   28118   28123   28124
   28127   28118   28123   28125   28127   28118   28123   28126
   28127   28118   28131   28132   28127   28118   28131   28133
   28127   28118   28131   28134   28131   28118   28119   28120
   28131   28118   28119   28121   28131   28118   28119   28122
   28131   28118   28123   28124   28131   28118   28123   28125
   28131   28118   28123   28126   28131   28118   28127   28128
   28131   28118   28127   28129   28131   28118   28127   28130
   28131   28134   28141   28137   28132   28131   28134   28135
   28132   28131   28134   28136   28132   28131   28134   28141
   28133   28131   28134   28135   28133   28131   28134   28136
   28133   28131   28134   28141   28135   28134   28141   28137
   28136   28134   28141   28137   28137   28140   28142   28143
   28137   28140   28142   28144   28137   28140   28142   28145
   28138   28137   28141   28134   28138   28137   28140   28142
   28139   28137   28141   28134   28139   28137   28140   28142
   28140   28137   28141   28134   28140   28142   28145   28146
   28140   28142   28145   28153   28140   28142   28145   28147
   28141   28137   28140   28142   28142   28145   28153   28154
   28142   28145   28153   28155   28142   28145   28153   28156
   28142   28145   28147   28148   28143   28142   28145   28146
   28143   28142   28145   28153   28143   28142   28145   28147
   28144   28142   28145   28146   28144   28142   28145   28153
   28144   28142   28145   28147   28145   28153   28156   28157
   28145   28147   28148   28150   28145   28147   28148   28149
   28146   28145   28153   28154   28146   28145   28153   28155
   28146   28145   28153   28156   28146   28145   28147   28148
   28147   28148   28150   28151   28147   28148   28150   28152
   28147   28148   28150   28162   28147   28145   28153   28154
   28147   28145   28153   28155   28147   28145   28153   28156
   28148   28150   28162   28163   28148   28150   28162   28164
   28148   28150   28162   28165   28149   28148   28150   28151
   28149   28148   28150   28152   28149   28148   28150   28162
   28150   28162   28165   28166   28150   28162   28165   28167
   28150   28162   28165   28168   28151   28150   28162   28163
   28151   28150   28162   28164   28151   28150   28162   28165
   28152   28150   28162   28163   28152   28150   28162   28164
   28152   28150   28162   28165   28153   28145   28147   28148
   28153   28156   28157   28159   28153   28156   28157   28158
   28154   28153   28156   28157   28155   28153   28156   28157
   28156   28157   28159   28160   28156   28157   28159   28161
   28156   28157   28159   28199   28157   28159   28199   28200
   28157   28159   28199   28201   28157   28159   28199   28202
   28158   28157   28159   28160   28158   28157   28159   28161
   28158   28157   28159   28199   28159   28199   28202   28203
   28159   28199   28202   28204   28159   28199   28202   28205
   28160   28159   28199   28200   28160   28159   28199   28201
   28160   28159   28199   28202   28161   28159   28199   28200
   28161   28159   28199   28201   28161   28159   28199   28202
   28162   28165   28168   28169   28162   28165   28168   28170
   28162   28165   28168   28171   28163   28162   28165   28166
   28163   28162   28165   28167   28163   28162   28165   28168
   28164   28162   28165   28166   28164   28162   28165   28167
   28164   28162   28165   28168   28165   28168   28171   28172
   28165   28168   28171   28173   28165   28168   28171   28174
   28166   28165   28168   28169   28166   28165   28168   28170
   28166   28165   28168   28171   28167   28165   28168   28169
   28167   28165   28168   28170   28167   28165   28168   28171
   28168   28171   28174   28175   28168   28171   28174   28176
   28168   28171   28174   28177   28169   28168   28171   28172
   28169   28168   28171   28173   28169   28168   28171   28174
   28170   28168   28171   28172   28170   28168   28171   28173
   28170   28168   28171   28174   28171   28174   28177   28178
   28171   28174   28177   28179   28171   28174   28177   28180
   28172   28171   28174   28175   28172   28171   28174   28176
   28172   28171   28174   28177   28173   28171   28174   28175
   28173   28171   28174   28176   28173   28171   28174   28177
   28174   28177   28180   28181   28174   28177   28180   28182
   28174   28177   28180   28183   28175   28174   28177   28178
   28175   28174   28177   28179   28175   28174   28177   28180
   28176   28174   28177   28178   28176   28174   28177   28179
   28176   28174   28177   28180   28177   28180   28183   28184
   28177   28180   28183   28185   28177   28180   28183   28186
   28178   28177   28180   28181   28178   28177   28180   28182
   28178   28177   28180   28183   28179   28177   28180   28181
   28179   28177   28180   28182   28179   28177   28180   28183
   28180   28183   28186   28187   28180   28183   28186   28188
   28180   28183   28186   28189   28181   28180   28183   28184
   28181   28180   28183   28185   28181   28180   28183   28186
   28182   28180   28183   28184   28182   28180   28183   28185
   28182   28180   28183   28186   28183   28186   28189   28190
   28183   28186   28189   28191   28183   28186   28189   28192
   28184   28183   28186   28187   28184   28183   28186   28188
   28184   28183   28186   28189   28185   28183   28186   28187
   28185   28183   28186   28188   28185   28183   28186   28189
   28186   28189   28192   28193   28186   28189   28192   28194
   28186   28189   28192   28195   28187   28186   28189   28190
   28187   28186   28189   28191   28187   28186   28189   28192
   28188   28186   28189   28190   28188   28186   28189   28191
   28188   28186   28189   28192   28189   28192   28195   28196
   28189   28192   28195   28197   28189   28192   28195   28198
   28190   28189   28192   28193   28190   28189   28192   28194
   28190   28189   28192   28195   28191   28189   28192   28193
   28191   28189   28192   28194   28191   28189   28192   28195
   28193   28192   28195   28196   28193   28192   28195   28197
   28193   28192   28195   28198   28194   28192   28195   28196
   28194   28192   28195   28197   28194   28192   28195   28198
   28199   28202   28205   28206   28199   28202   28205   28207
   28199   28202   28205   28208   28200   28199   28202   28203
   28200   28199   28202   28204   28200   28199   28202   28205
   28201   28199   28202   28203   28201   28199   28202   28204
   28201   28199   28202   28205   28202   28205   28208   28209
   28202   28205   28208   28210   28202   28205   28208   28211
   28203   28202   28205   28206   28203   28202   28205   28207
   28203   28202   28205   28208   28204   28202   28205   28206
   28204   28202   28205   28207   28204   28202   28205   28208
   28205   28208   28211   28212   28205   28208   28211   28213
   28205   28208   28211   28214   28206   28205   28208   28209
   28206   28205   28208   28210   28206   28205   28208   28211
   28207   28205   28208   28209   28207   28205   28208   28210
   28207   28205   28208   28211   28208   28211   28214   28215
   28208   28211   28214   28216   28208   28211   28214   28217
   28209   28208   28211   28212   28209   28208   28211   28213
   28209   28208   28211   28214   28210   28208   28211   28212
   28210   28208   28211   28213   28210   28208   28211   28214
   28211   28214   28217   28218   28211   28214   28217   28219
   28211   28214   28217   28220   28212   28211   28214   28215
   28212   28211   28214   28216   28212   28211   28214   28217
   28213   28211   28214   28215   28213   28211   28214   28216
   28213   28211   28214   28217   28214   28217   28220   28221
   28214   28217   28220   28222   28214   28217   28220   28223
   28215   28214   28217   28218   28215   28214   28217   28219
   28215   28214   28217   28220   28216   28214   28217   28218
   28216   28214   28217   28219   28216   28214   28217   28220
   28217   28220   28223   28224   28217   28220   28223   28225
   28217   28220   28223   28226   28218   28217   28220   28221
   28218   28217   28220   28222   28218   28217   28220   28223
   28219   28217   28220   28221   28219   28217   28220   28222
   28219   28217   28220   28223   28220   28223   28226   28227
   28220   28223   28226   28228   28220   28223   28226   28229
   28221   28220   28223   28224   28221   28220   28223   28225
   28221   28220   28223   28226   28222   28220   28223   28224
   28222   28220   28223   28225   28222   28220   28223   28226
   28223   28226   28229   28230   28223   28226   28229   28231
   28223   28226   28229   28232   28224   28223   28226   28227
   28224   28223   28226   28228   28224   28223   28226   28229
   28225   28223   28226   28227   28225   28223   28226   28228
   28225   28223   28226   28229   28226   28229   28232   28233
   28226   28229   28232   28234   28226   28229   28232   28235
   28227   28226   28229   28230   28227   28226   28229   28231
   28227   28226   28229   28232   28228   28226   28229   28230
   28228   28226   28229   28231   28228   28226   28229   28232
   28230   28229   28232   28233   28230   28229   28232   28234
   28230   28229   28232   28235   28231   28229   28232   28233
   28231   28229   28232   28234   28231   28229   28232   28235

     256 !NIMPHI: impropers
   13162   13161   13164   13163   13171   13170   13173   13172
   13280   13279   13282   13281   13289   13288   13291   13290
   13398   13397   13400   13399   13407   13406   13409   13408
   13516   13515   13518   13517   13525   13524   13527   13526
   13634   13633   13636   13635   13643   13642   13645   13644
   13752   13751   13754   13753   13761   13760   13763   13762
   13870   13869   13872   13871   13879   13878   13881   13880
   13988   13987   13990   13989   13997   13996   13999   13998
   14106   14105   14108   14107   14115   14114   14117   14116
   14224   14223   14226   14225   14233   14232   14235   14234
   14342   14341   14344   14343   14351   14350   14353   14352
   14460   14459   14462   14461   14469   14468   14471   14470
   14578   14577   14580   14579   14587   14586   14589   14588
   14696   14695   14698   14697   14705   14704   14707   14706
   14814   14813   14816   14815   14823   14822   14825   14824
   14932   14931   14934   14933   14941   14940   14943   14942
   15050   15049   15052   15051   15059   15058   15061   15060
   15168   15167   15170   15169   15177   15176   15179   15178
   15286   15285   15288   15287   15295   15294   15297   15296
   15404   15403   15406   15405   15413   15412   15415   15414
   15522   15521   15524   15523   15531   15530   15533   15532
   15640   15639   15642   15641   15649   15648   15651   15650
   15758   15757   15760   15759   15767   15766   15769   15768
   15876   15875   15878   15877   15885   15884   15887   15886
   15994   15993   15996   15995   16003   16002   16005   16004
   16112   16111   16114   16113   16121   16120   16123   16122
   16230   16229   16232   16231   16239   16238   16241   16240
   16348   16347   16350   16349   16357   16356   16359   16358
   16466   16465   16468   16467   16475   16474   16477   16476
   16584   16583   16586   16585   16593   16592   16595   16594
   16702   16701   16704   16703   16711   16710   16713   16712
   16820   16819   16822   16821   16829   16828   16831   16830
   16938   16937   16940   16939   16947   16946   16949   16948
   17056   17055   17058   17057   17065   17064   17067   17066
   17174   17173   17176   17175   17183   17182   17185   17184
   17292   17291   17294   17293   17301   17300   17303   17302
   17410   17409   17412   17411   17419   17418   17421   17420
   17528   17527   17530   17529   17537   17536   17539   17538
   17646   17645   17648   17647   17655   17654   17657   17656
   17764   17763   17766   17765   17773   17772   17775   17774
   17882   17881   17884   17883   17891   17890   17893   17892
   18000   17999   18002   18001   18009   18008   18011   18010
   18118   18117   18120   18119   18127   18126   18129   18128
   18236   18235   18238   18237   18245   18244   18247   18246
   18354   18353   18356   18355   18363   18362   18365   18364
   18472   18471   18474   18473   18481   18480   18483   18482
   18590   18589   18592   18591   18599   18598   18601   18600
   18708   18707   18710   18709   18717   18716   18719   18718
   18826   18825   18828   18827   18835   18834   18837   18836
   18944   18943   18946   18945   18953   18952   18955   18954
   19062   19061   19064   19063   19071   19070   19073   19072
   19180   19179   19182   19181   19189   19188   19191   19190
   19298   19297   19300   19299   19307   19306   19309   19308
   19416   19415   19418   19417   19425   19424   19427   19426
   19534   19533   19536   19535   19543   19542   19545   19544
   19652   19651   19654   19653   19661   19660   19663   19662
   19770   19769   19772   19771   19779   19778   19781   19780
   19888   19887   19890   19889   19897   19896   19899   19898
   20006   20005   20008   20007   20015   20014   20017   20016
   20124   20123   20126   20125   20133   20132   20135   20134
   20242   20241   20244   20243   20251   20250   20253   20252
   20360   20359   20362   20361   20369   20368   20371   20370
   20478   20477   20480   20479   20487   20486   20489   20488
   20596   20595   20598   20597   20605   20604   20607   20606
   20714   20713   20716   20715   20723   20722   20725   20724
   20832   20831   20834   20833   20841   20840   20843   20842
   20950   20949   20952   20951   20959   20958   20961   20960
   21068   21067   21070   21069   21077   21076   21079   21078
   21186   21185   21188   21187   21195   21194   21197   21196
   21304   21303   21306   21305   21313   21312   21315   21314
   21422   21421   21424   21423   21431   21430   21433   21432
   21540   21539   21542   21541   21549   21548   21551   21550
   21658   21657   21660   21659   21667   21666   21669   21668
   21776   21775   21778   21777   21785   21784   21787   21786
   21894   21893   21896   21895   21903   21902   21905   21904
   22012   22011   22014   22013   22021   22020   22023   22022
   22130   22129   22132   22131   22139   22138   22141   22140
   22248   22247   22250   22249   22257   22256   22259   22258
   22366   22365   22368   22367   22375   22374   22377   22376
   22484   22483   22486   22485   22493   22492   22495   22494
   22602   22601   22604   22603   22611   22610   22613   22612
   22720   22719   22722   22721   22729   22728   22731   22730
   22838   22837   22840   22839   22847   22846   22849   22848
   22956   22955   22958   22957   22965   22964   22967   22966
   23074   23073   23076   23075   23083   23082   23085   23084
   23192   23191   23194   23193   23201   23200   23203   23202
   23310   23309   23312   23311   23319   23318   23321   23320
   23428   23427   23430   23429   23437   23436   23439   23438
   23546   23545   23548   23547   23555   23554   23557   23556
   23664   23663   23666   23665   23673   23672   23675   23674
   23782   23781   23784   23783   23791   23790   23793   23792
   23900   23899   23902   23901   23909   23908   23911   23910
   24018   24017   24020   24019   24027   24026   24029   24028
   24136   24135   24138   24137   24145   24144   24147   24146
   24254   24253   24256   24255   24263   24262   24265   24264
   24372   24371   24374   24373   24381   24380   24383   24382
   24490   24489   24492   24491   24499   24498   24501   24500
   24608   24607   24610   24609   24617   24616   24619   24618
   24726   24725   24728   24727   24735   24734   24737   24736
   24844   24843   24846   24845   24853   24852   24855   24854
   24962   24961   24964   24963   24971   24970   24973   24972
   25080   25079   25082   25081   25089   25088   25091   25090
   25198   25197   25200   25199   25207   25206   25209   25208
   25316   25315   25318   25317   25325   25324   25327   25326
   25434   25433   25436   25435   25443   25442   25445   25444
   25552   25551   25554   25553   25561   25560   25563   25562
   25670   25669   25672   25671   25679   25678   25681   25680
   25788   25787   25790   25789   25797   25796   25799   25798
   25906   25905   25908   25907   25915   25914   25917   25916
   26024   26023   26026   26025   26033   26032   26035   26034
   26142   26141   26144   26143   26151   26150   26153   26152
   26260   26259   26262   26261   26269   26268   26271   26270
   26378   26377   26380   26379   26387   26386   26389   26388
   26496   26495   26498   26497   26505   26504   26507   26506
   26614   26613   26616   26615   26623   26622   26625   26624
   26732   26731   26734   26733   26741   26740   26743   26742
   26850   26849   26852   26851   26859   26858   26861   26860
   26968   26967   26970   26969   26977   26976   26979   26978
   27086   27085   27088   27087   27095   27094   27097   27096
   27204   27203   27206   27205   27213   27212   27215   27214
   27322   27321   27324   27323   27331   27330   27333   27332
   27440   27439   27442   27441   27449   27448   27451   27450
   27558   27557   27560   27559   27567   27566   27569   27568
   27676   27675   27678   27677   27685   27684   27687   27686
   27794   27793   27796   27795   27803   27802   27805   27804
   27912   27911   27914   27913   27921   27920   27923   27922
   28030   28029   28032   28031   28039   28038   28041   28040
   28148   28147   28150   28149   28157   28156   28159   28158

       0 !NDON: donors


       0 !NACC: acceptors


       0 !NNB

       0       0       0       0       0       0       0       0
       0       0       0       0       0       0       0       0
       0       0       0       0       0       0       0       0
       0       0       0       0       0       0       0       0
       0       0       0       0       0       0       0       0
       0       0       0       0       0       0       0       0
       0       0       0       0       0       0       0       0
       0       0       0       0       0       0       0       0
       0       0       0       0       0       0       0       0
       0       0       0       0       0       0       0       0
       0       0       0       0       0       0       0       0
       0       0       0       0       0       0       0       0
       0       0       0       0       0       0       0       0
       0       0       0       0       0       0       0       0
       0       0       0       0       0       0       0       0
       0       0       0       0       0       0       0       0
       0       0       0       0       0       0       0       0
       0       0       0       0       0       0       0       0
       0       0       0       0       0       0       0       0
       0       0       0       0       0       0       0       0
       0       0       0       0       0       0       0       0
       0       0       0       0       0       0       0       0
       0       0       0       0       0       0       0       0
       0       0       0       0       0       0       0       0
       0       0       0       0       0       0       0       0
       0       0       0       0       0       0       0       0
       0       0       0       0       0       0       0       0
       0       0       0       0       0       0       0       0
       0       0       0       0       0       0       0       0
       0       0       0       0       0       0       0       0
       0       0       0       0       0       0       0       0
       0       0       0       0       0       0       0       0
       0       0       0       0       0       0       0       0
       0       0       0       0       0       0       0       0
       0       0       0       0       0       0       0       0
       0       0       0       0       0       0       0       0
       0       0       0       0       0       0       0       0
       0       0       0       0       0       0       0       0
       0       0       0       0       0       0       0       0
       0       0       0       0       0       0       0       0
       0       0       0       0       0       0       0       0
       0       0       0       0       0       0       0       0
       0       0       0       0       0       0       0       0
       0       0       0       0       0       0       0       0
       0       0       0       0       0       0       0       0
       0       0       0       0       0       0       0       0
       0       0       0       0       0       0       0       0
       0       0       0       0       0       0       0       0
       0       0       0       0       0       0       0       0
       0       0       0       0       0       0       0       0
       0       0       0       0       0       0       0       0
       0       0       0       0       0       0       0       0
       0       0       0       0       0       0       0       0
       0       0       0       0       0       0       0       0
       0       0       0       0       0       0       0       0
       0       0       0       0       0       0       0       0
       0       0       0       0       0       0       0       0
       0       0       0       0       0       0       0       0
       0       0       0       0       0       0       0       0
       0       0       0       0       0       0       0       0
       0       0       0       0       0       0       0       0
       0       0       0       0       0       0       0       0
       0       0       0       0       0       0       0       0
       0       0       0       0       0       0       0       0
       0       0       0       0       0       0       0       0
       0       0       0       0       0       0       0       0
       0       0       0       0       0       0       0       0
       0       0       0       0       0       0       0       0
       0       0       0       0       0       0       0       0
       0       0       0       0       0       0       0       0
       0       0       0       0       0       0       0       0
       0       0       0       0       0       0       0       0
       0       0       0       0       0       0       0       0
       0       0       0       0       0       0       0       0
       0       0       0       0       0       0       0       0
       0       0       0       0       0       0       0       0
       0       0       0       0       0       0       0       0
       0       0       0       0       0       0       0       0
       0       0       0       0       0       0       0       0
       0       0       0       0       0       0       0       0
       0       0       0       0       0       0       0       0
       0       0       0       0       0       0       0       0
       0       0       0       0       0       0       0       0
       0       0       0       0       0       0       0       0
       0       0       0       0       0       0       0       0
       0       0       0       0       0       0       0       0
       0       0       0       0       0       0       0       0
       0       0       0       0       0       0       0       0
       0       0       0       0       0       0       0       0
       0       0       0       0       0       0       0       0
       0       0       0       0       0       0       0       0
       0       0       0       0       0       0       0       0
       0       0       0       0       0       0       0       0
       0       0       0       0       0       0       0       0
       0       0       0       0       0       0       0       0
       0       0       0       0       0       0       0       0
       0       0       0       0       0       0       0       0
       0       0       0       0       0       0       0       0
       0       0       0       0       0       0       0       0
       0       0       0       0       0       0       0       0
       0       0       0       0       0       0       0       0
       0       0       0       0       0       0       0       0
       0       0       0       0       0       0       0       0
       0       0       0       0       0       0       0       0
       0       0       0       0       0       0       0       0
       0       0       0       0       0       0       0       0
       0       0       0       0       0       0       0       0
       0       0       0       0       0       0       0       0
       0       0       0       0       0       0       0       0
       0       0       0       0       0       0       0       0
       0       0       0       0       0       0       0       0
       0       0       0       0       0       0       0       0
       0       0       0       0       0       0       0       0
       0       0       0       0       0       0       0       0
       0       0       0       0       0       0       0       0
       0       0       0       0       0       0       0       0
       0       0       0       0       0       0       0       0
       0       0       0       0       0       0       0       0
       0       0       0       0       0       0       0       0
       0       0       0       0       0       0       0       0
       0       0       0       0       0       0       0       0
       0       0       0       0       0       0       0       0
       0       0       0       0       0       0       0       0
       0       0       0       0       0       0       0       0
       0       0       0       0       0       0       0       0
       0       0       0       0       0       0       0       0
       0       0       0       0       0       0       0       0
       0       0       0       0       0       0       0       0
       0       0       0       0       0       0       0       0
       0       0       0       0       0       0       0       0
       0       0       0       0       0       0       0       0
       0       0       0       0       0       0       0       0
       0       0       0       0       0       0       0       0
       0       0       0       0       0       0       0       0
       0       0       0       0       0       0       0       0
       0       0       0       0       0       0       0       0
       0       0       0       0       0       0       0       0
       0       0       0       0       0       0       0       0
       0       0       0       0       0       0       0       0
       0       0       0       0       0       0       0       0
       0       0       0       0       0       0       0       0
       0       0       0       0       0       0       0       0
       0       0       0       0       0       0       0       0
       0       0       0       0       0       0       0       0
       0       0       0       0       0       0       0       0
       0       0       0       0       0       0       0       0
       0       0       0       0       0       0       0       0
       0       0       0       0       0       0       0       0
       0       0       0       0       0       0       0       0
       0       0       0       0       0       0       0       0
       0       0       0       0       0       0       0       0
       0       0       0       0       0       0       0       0
       0       0       0       0       0       0       0       0
       0       0       0       0       0       0       0       0
       0       0       0       0       0       0       0       0
       0       0       0       0       0       0       0       0
       0       0       0       0       0       0       0       0
       0       0       0       0       0       0       0       0
       0       0       0       0       0       0       0       0
       0       0       0       0       0       0       0       0
       0       0       0       0       0       0       0       0
       0       0       0       0       0       0       0       0
       0       0       0       0       0       0       0       0
       0       0       0       0       0       0       0       0
       0       0       0       0       0       0       0       0
       0       0       0       0       0       0       0       0
       0       0       0       0       0       0       0       0
       0       0       0       0       0       0       0       0
       0       0       0       0       0       0       0       0
       0       0       0       0       0       0       0       0
       0       0       0       0       0       0       0       0
       0       0       0       0       0       0       0       0
       0       0       0       0       0       0       0       0
       0       0       0       0       0       0       0       0
       0       0       0       0       0       0       0       0
       0       0       0       0       0       0       0       0
       0       0       0       0       0       0       0       0
       0       0       0       0       0       0       0       0
       0       0       0       0       0       0       0       0
       0       0       0       0       0       0       0       0
       0       0       0       0       0       0       0       0
       0       0       0       0       0       0       0       0
       0       0       0       0       0       0       0       0
       0       0       0       0       0       0       0       0
       0       0       0       0       0       0       0       0
       0       0       0       0       0       0       0       0
       0       0       0       0       0       0       0       0
       0       0       0       0       0       0       0       0
       0       0       0       0       0       0       0       0
       0       0       0       0       0       0       0       0
       0       0       0       0       0       0       0       0
       0       0       0       0       0       0       0       0
       0       0       0       0       0       0       0       0
       0       0       0       0       0       0       0       0
       0       0       0       0       0       0       0       0
       0       0       0       0       0       0       0       0
       0       0       0       0       0       0       0       0
       0       0       0       0       0       0       0       0
       0       0       0       0       0       0       0       0
       0       0       0       0       0       0       0       0
       0       0       0       0       0       0       0       0
       0       0       0       0       0       0       0       0
       0       0       0       0       0       0       0       0
       0       0       0       0       0       0       0       0
       0       0       0       0       0       0       0       0
       0       0       0       0       0       0       0       0
       0       0       0       0       0       0       0       0
       0       0       0       0       0       0       0       0
       0       0       0       0       0       0       0       0
       0       0       0       0       0       0       0       0
       0       0       0       0       0       0       0       0
       0       0       0       0       0       0       0       0
       0       0       0       0       0       0       0       0
       0       0       0       0       0       0       0       0
       0       0       0       0       0       0       0       0
       0       0       0       0       0       0       0       0
       0       0       0       0       0       0       0       0
       0       0       0       0       0       0       0       0
       0       0       0       0       0       0       0       0
       0       0       0       0       0       0       0       0
       0       0       0       0       0       0       0       0
       0       0       0       0       0       0       0       0
       0       0       0       0       0       0       0       0
       0       0       0       0       0       0       0       0
       0       0       0       0       0       0       0       0
       0       0       0       0       0       0       0       0
       0       0       0       0       0       0       0       0
       0       0       0       0       0       0       0       0
       0       0       0       0       0       0       0       0
       0       0       0       0       0       0       0       0
       0       0       0       0       0       0       0       0
       0       0       0       0       0       0       0       0
       0       0       0       0       0       0       0       0
       0       0       0       0       0       0       0       0
       0       0       0       0       0       0       0       0
       0       0       0       0       0       0       0       0
       0       0       0       0       0       0       0       0
       0       0       0       0       0       0       0       0
       0       0       0       0       0       0       0       0
       0       0       0       0       0       0       0       0
       0       0       0       0       0       0       0       0
       0       0       0       0       0       0       0       0
       0       0       0       0       0       0       0       0
       0       0       0       0       0       0       0       0
       0       0       0       0       0       0       0       0
       0       0       0       0       0       0       0       0
       0       0       0       0       0       0       0       0
       0       0       0       0       0       0       0       0
       0       0       0       0       0       0       0       0
       0       0       0       0       0       0       0       0
       0       0       0       0       0       0       0       0
       0       0       0       0       0       0       0       0
       0       0       0       0       0       0       0       0
       0       0       0       0       0       0       0       0
       0       0       0       0       0       0       0       0
       0       0       0       0       0       0       0       0
       0       0       0       0       0       0       0       0
       0       0       0       0       0       0       0       0
       0       0       0       0       0       0       0       0
       0       0       0       0       0       0       0       0
       0       0       0       0       0       0       0       0
       0       0       0       0       0       0       0       0
       0       0       0       0       0       0       0       0
       0       0       0       0       0       0       0       0
       0       0       0       0       0       0       0       0
       0       0       0       0       0       0       0       0
       0       0       0       0       0       0       0       0
       0       0       0       0       0       0       0       0
       0       0       0       0       0       0       0       0
       0       0       0       0       0       0       0       0
       0       0       0       0       0       0       0       0
       0       0       0       0       0       0       0       0
       0       0       0       0       0       0       0       0
       0       0       0       0       0       0       0       0
       0       0       0       0       0       0       0       0
       0       0       0       0       0       0       0       0
       0       0       0       0       0       0       0       0
       0       0       0       0       0       0       0       0
       0       0       0       0       0       0       0       0
       0       0       0       0       0       0       0       0
       0       0       0       0       0       0       0       0
       0       0       0       0       0       0       0       0
       0       0       0       0       0       0       0       0
       0       0       0       0       0       0       0       0
       0       0       0       0       0       0       0       0
       0       0       0       0       0       0       0       0
       0       0       0       0       0       0       0       0
       0       0       0       0       0       0       0       0
       0       0       0       0       0       0       0       0
       0       0       0       0       0       0       0       0
       0       0       0       0       0       0       0       0
       0       0       0       0       0       0       0       0
       0       0       0       0       0       0       0       0
       0       0       0       0       0       0       0       0
       0       0       0       0       0       0       0       0
       0       0       0       0       0       0       0       0
       0       0       0       0       0       0       0       0
       0       0       0       0       0       0       0       0
       0       0       0       0       0       0       0       0
       0       0       0       0       0       0       0       0
       0       0       0       0       0       0       0       0
       0       0       0       0       0       0       0       0
       0       0       0       0       0       0       0       0
       0       0       0       0       0       0       0       0
       0       0       0       0       0       0       0       0
       0       0       0       0       0       0       0       0
       0       0       0       0       0       0       0       0
       0       0       0       0       0       0       0       0
       0       0       0       0       0       0       0       0
       0       0       0       0       0       0       0       0
       0       0       0       0       0       0       0       0
       0       0       0       0       0       0       0       0
       0       0       0       0       0       0       0       0
       0       0       0       0       0       0       0       0
       0       0       0       0       0       0       0       0
       0       0       0       0       0       0       0       0
       0       0       0       0       0       0       0       0
       0       0       0       0       0       0       0       0
       0       0       0       0       0       0       0       0
       0       0       0       0       0       0       0       0
       0       0       0       0       0       0       0       0
       0       0       0       0       0       0       0       0
       0       0       0       0       0       0       0       0
       0       0       0       0       0       0       0       0
       0       0       0       0       0       0       0       0
       0       0       0       0       0       0       0       0
       0       0       0       0       0       0       0       0
       0       0       0       0       0       0       0       0
       0       0       0       0       0       0       0       0
       0       0       0       0       0       0       0       0
       0       0       0       0       0       0       0       0
       0       0       0       0       0       0       0       0
       0       0       0       0       0       0       0       0
       0       0       0       0       0       0       0       0
       0       0       0       0       0       0       0       0
       0       0       0       0       0       0       0       0
       0       0       0       0       0       0       0       0
       0       0       0       0       0       0       0       0
       0       0       0       0       0       0       0       0
       0       0       0       0       0       0       0       0
       0       0       0       0       0       0       0       0
       0       0       0       0       0       0       0       0
       0       0       0       0       0       0       0       0
       0       0       0       0       0       0       0       0
       0       0       0       0       0       0       0       0
       0       0       0       0       0       0       0       0
       0       0       0       0       0       0       0       0
       0       0       0       0       0       0       0       0
       0       0       0       0       0       0       0       0
       0       0       0       0       0       0       0       0
       0       0       0       0       0       0       0       0
       0       0       0       0       0       0       0       0
       0       0       0       0       0       0       0       0
       0       0       0       0       0       0       0       0
       0       0       0       0       0       0       0       0
       0       0       0       0       0       0       0       0
       0       0       0       0       0       0       0       0
       0       0       0       0       0       0       0       0
       0       0       0       0       0       0       0       0
       0       0       0       0       0       0       0       0
       0       0       0       0       0       0       0       0
       0       0       0       0       0       0       0       0
       0       0       0       0       0       0       0       0
       0       0       0       0       0       0       0       0
       0       0       0       0       0       0       0       0
       0       0       0       0       0       0       0       0
       0       0       0       0       0       0       0       0
       0       0       0       0       0       0       0       0
       0       0       0       0       0       0       0       0
       0       0       0       0       0       0       0       0
       0       0       0       0       0       0       0       0
       0       0       0       0       0       0       0       0
       0       0       0       0       0       0       0       0
       0       0       0       0       0       0       0       0
       0       0       0       0       0       0       0       0
       0       0       0       0       0       0       0       0
       0       0       0       0       0       0       0       0
       0       0       0       0       0       0       0       0
       0       0       0       0       0       0       0       0
       0       0       0       0       0       0       0       0
       0       0       0       0       0       0       0       0
       0       0       0       0       0       0       0       0
       0       0       0       0       0       0       0       0
       0       0       0       0       0       0       0       0
       0       0       0       0       0       0       0       0
       0       0       0       0       0       0       0       0
       0       0       0       0       0       0       0       0
       0       0       0       0       0       0       0       0
       0       0       0       0       0       0       0       0
       0       0       0       0       0       0       0       0
       0       0       0       0       0       0       0       0
       0       0       0       0       0       0       0       0
       0       0       0       0       0       0       0       0
       0       0       0       0       0       0       0       0
       0       0       0       0       0       0       0       0
       0       0       0       0       0       0       0       0
       0       0       0       0       0       0       0       0
       0       0       0       0       0       0       0       0
       0       0       0       0       0       0       0       0
       0       0       0       0       0       0       0       0
       0       0       0       0       0       0       0       0
       0       0       0       0       0       0       0       0
       0       0       0       0       0       0       0       0
       0       0       0       0       0       0       0       0
       0       0       0       0       0       0       0       0
       0       0       0       0       0       0       0       0
       0       0       0       0       0       0       0       0
       0       0       0       0       0       0       0       0
       0       0       0       0       0       0       0       0
       0       0       0       0       0       0       0       0
       0       0       0       0       0       0       0       0
       0       0       0       0       0       0       0       0
       0       0       0       0       0       0       0       0
       0       0       0       0       0       0       0       0
       0       0       0       0       0       0       0       0
       0       0       0       0       0       0       0       0
       0       0       0       0       0       0       0       0
       0       0       0       0       0       0       0       0
       0       0       0       0       0       0       0       0
       0       0       0       0       0       0       0       0
       0       0       0       0       0       0       0       0
       0       0       0       0       0       0       0       0
       0       0       0       0       0       0       0       0
       0       0       0       0       0       0       0       0
       0       0       0       0       0       0       0       0
       0       0       0       0       0       0       0       0
       0       0       0       0       0       0       0       0
       0       0       0       0       0       0       0       0
       0       0       0       0       0       0       0       0
       0       0       0       0       0       0       0       0
       0       0       0       0       0       0       0       0
       0       0       0       0       0       0       0       0
       0       0       0       0       0       0       0       0
       0       0       0       0       0       0       0       0
       0       0       0       0       0       0       0       0
       0       0       0       0       0       0       0       0
       0       0       0       0       0       0       0       0
       0       0       0       0       0       0       0       0
       0       0       0       0       0       0       0       0
       0       0       0       0       0       0       0       0
       0       0       0       0       0       0       0       0
       0       0       0       0       0       0       0       0
       0       0       0       0       0       0       0       0
       0       0       0       0       0       0       0       0
       0       0       0       0       0       0       0       0
       0       0       0       0       0       0       0       0
       0       0       0       0       0       0       0       0
       0       0       0       0       0       0       0       0
       0       0       0       0       0       0       0       0
       0       0       0       0       0       0       0       0
       0       0       0       0       0       0       0       0
       0       0       0       0       0       0       0       0
       0       0       0       0       0       0       0       0
       0       0       0       0       0       0       0       0
       0       0       0       0       0       0       0       0
       0       0       0       0       0       0       0       0
       0       0       0       0       0       0       0       0
       0       0       0       0       0       0       0       0
       0       0       0       0       0       0       0       0
       0       0       0       0       0       0       0       0
       0       0       0       0       0       0       0       0
       0       0       0       0       0       0       0       0
       0       0       0       0       0       0       0       0
       0       0       0       0       0       0       0       0
       0       0       0       0       0       0       0       0
       0       0       0       0       0       0       0       0
       0       0       0       0       0       0       0       0
       0       0       0       0       0       0       0       0
       0       0       0       0       0       0       0       0
       0       0       0       0       0       0       0       0
       0       0       0       0       0       0       0       0
       0       0       0       0       0       0       0       0
       0       0       0       0       0       0       0       0
       0       0       0       0       0       0       0       0
       0       0       0       0       0       0       0       0
       0       0       0       0       0       0       0       0
       0       0       0       0       0       0       0       0
       0       0       0       0       0       0       0       0
       0       0       0       0       0       0       0       0
       0       0       0       0       0       0       0       0
       0       0       0       0       0       0       0       0
       0       0       0       0       0       0       0       0
       0       0       0       0       0       0       0       0
       0       0       0       0       0       0       0       0
       0       0       0       0       0       0       0       0
       0       0       0       0       0       0       0       0
       0       0       0       0       0       0       0       0
       0       0       0       0       0       0       0       0
       0       0       0       0       0       0       0       0
       0       0       0       0       0       0       0       0
       0       0       0       0       0       0       0       0
       0       0       0       0       0       0       0       0
       0       0       0       0       0       0       0       0
       0       0       0       0       0       0       0       0
       0       0       0       0       0       0       0       0
       0       0       0       0       0       0       0       0
       0       0       0       0       0       0       0       0
       0       0       0       0       0       0       0       0
       0       0       0       0       0       0       0       0
       0       0       0       0       0       0       0       0
       0       0       0       0       0       0       0       0
       0       0       0       0       0       0       0       0
       0       0       0       0       0       0       0       0
       0       0       0       0       0       0       0       0
       0       0       0       0       0       0       0       0
       0       0       0       0       0       0       0       0
       0       0       0       0       0       0       0       0
       0       0       0       0       0       0       0       0
       0       0       0       0       0       0       0       0
       0       0       0       0       0       0       0       0
       0       0       0       0       0       0       0       0
       0       0       0       0       0       0       0       0
       0       0       0       0       0       0       0       0
       0       0       0       0       0       0       0       0
       0       0       0       0       0       0       0       0
       0       0       0       0       0       0       0       0
       0       0       0       0       0       0       0       0
       0       0       0       0       0       0       0       0
       0       0       0       0       0       0       0       0
       0       0       0       0       0       0       0       0
       0       0       0       0       0       0       0       0
       0       0       0       0       0       0       0       0
       0       0       0       0       0       0       0       0
       0       0       0       0       0       0       0       0
       0       0       0       0       0       0       0       0
       0       0       0       0       0       0       0       0
       0       0       0       0       0       0       0       0
       0       0       0       0       0       0       0       0
       0       0       0       0       0       0       0       0
       0       0       0       0       0       0       0       0
       0       0       0       0       0       0       0       0
       0       0       0       0       0       0       0       0
       0       0       0       0       0       0       0       0
       0       0       0       0       0       0       0       0
       0       0       0       0       0       0       0       0
       0       0       0       0       0       0       0       0
       0       0       0       0       0       0       0       0
       0       0       0       0       0       0       0       0
       0       0       0       0       0       0       0       0
       0       0       0       0       0       0       0       0
       0       0       0       0       0       0       0       0
       0       0       0       0       0       0       0       0
       0       0       0       0       0       0       0       0
       0       0       0       0       0       0       0       0
       0       0       0       0       0       0       0       0
       0       0       0       0       0       0       0       0
       0       0       0       0       0       0       0       0
       0       0       0       0       0       0       0       0
       0       0       0       0       0       0       0       0
       0       0       0       0       0       0       0       0
       0       0       0       0       0       0       0       0
       0       0       0       0       0       0       0       0
       0       0       0       0       0       0       0       0
       0       0       0       0       0       0       0       0
       0       0       0       0       0       0       0       0
       0       0       0       0       0       0       0       0
       0       0       0       0       0       0       0       0
       0       0       0       0       0       0       0       0
       0       0       0       0       0       0       0       0
       0       0       0       0       0       0       0       0
       0       0       0       0       0       0       0       0
       0       0       0       0       0       0       0       0
       0       0       0       0       0       0       0       0
       0       0       0       0       0       0       0       0
       0       0       0       0       0       0       0       0
       0       0       0       0       0       0       0       0
       0       0       0       0       0       0       0       0
       0       0       0       0       0       0       0       0
       0       0       0       0       0       0       0       0
       0       0       0       0       0       0       0       0
       0       0       0       0       0       0       0       0
       0       0       0       0       0       0       0       0
       0       0       0       0       0       0       0       0
       0       0       0       0       0       0       0       0
       0       0       0       0       0       0       0       0
       0       0       0       0       0       0       0       0
       0       0       0       0       0       0       0       0
       0       0       0       0       0       0       0       0
       0       0       0       0       0       0       0       0
       0       0       0       0       0       0       0       0
       0       0       0       0       0       0       0       0
       0       0       0       0       0       0       0       0
       0       0       0       0       0       0       0       0
       0       0       0       0       0       0       0       0
       0       0       0       0       0       0       0       0
       0       0       0       0       0       0       0       0
       0       0       0       0       0       0       0       0
       0       0       0       0       0       0       0       0
       0       0       0       0       0       0       0       0
       0       0       0       0       0       0       0       0
       0       0       0       0       0       0       0       0
       0       0       0       0       0       0       0       0
       0       0       0       0       0       0       0       0
       0       0       0       0       0       0       0       0
       0       0       0       0       0       0       0       0
       0       0       0       0       0       0       0       0
       0       0       0       0       0       0       0       0
       0       0       0       0       0       0       0       0
       0       0       0       0       0       0       0       0
       0       0       0       0       0       0       0       0
       0       0       0       0       0       0       0       0
       0       0       0       0       0       0       0       0
       0       0       0       0       0       0       0       0
       0       0       0       0       0       0       0       0
       0       0       0       0       0       0       0       0
       0       0       0       0       0       0       0       0
       0       0       0       0       0       0       0       0
       0       0       0       0       0       0       0       0
       0       0       0       0       0       0       0       0
       0       0       0       0       0       0       0       0
       0       0       0       0       0       0       0       0
       0       0       0       0       0       0       0       0
       0       0       0       0       0       0       0       0
       0       0       0       0       0       0       0       0
       0       0       0       0       0       0       0       0
       0       0       0       0       0       0       0       0
       0       0       0       0       0       0       0       0
       0       0       0       0       0       0       0       0
       0       0       0       0       0       0       0       0
       0       0       0       0       0       0       0       0
       0       0       0       0       0       0       0       0
       0       0       0       0       0       0       0       0
       0       0       0       0       0       0       0       0
       0       0       0       0       0       0       0       0
       0       0       0       0       0       0       0       0
       0       0       0       0       0       0       0       0
       0       0       0       0       0       0       0       0
       0       0       0       0       0       0       0       0
       0       0       0       0       0       0       0       0
       0       0       0       0       0       0       0       0
       0       0       0       0       0       0       0       0
       0       0       0       0       0       0       0       0
       0       0       0       0       0       0       0       0
       0       0       0       0       0       0       0       0
       0       0       0       0       0       0       0       0
       0       0       0       0       0       0       0       0
       0       0       0       0       0       0       0       0
       0       0       0       0       0       0       0       0
       0       0       0       0       0       0       0       0
       0       0       0       0       0       0       0       0
       0       0       0       0       0       0       0       0
       0       0       0       0       0       0       0       0
       0       0       0       0       0       0       0       0
       0       0       0       0       0       0       0       0
       0       0       0       0       0       0       0       0
       0       0       0       0       0       0       0       0
       0       0       0       0       0       0       0       0
       0       0       0       0       0       0       0       0
       0       0       0       0       0       0       0       0
       0       0       0       0       0       0       0       0
       0       0       0       0       0       0       0       0
       0       0       0       0       0       0       0       0
       0       0       0       0       0       0       0       0
       0       0       0       0       0       0       0       0
       0       0       0       0       0       0       0       0
       0       0       0       0       0       0       0       0
       0       0       0       0       0       0       0       0
       0       0       0       0       0       0       0       0
       0       0       0       0       0       0       0       0
       0       0       0       0       0       0       0       0
       0       0       0       0       0       0       0       0
       0       0       0       0       0       0       0       0
       0       0       0       0       0       0       0       0
       0       0       0       0       0       0       0       0
       0       0       0       0       0       0       0       0
       0       0       0       0       0       0       0       0
       0       0       0       0       0       0       0       0
       0       0       0       0       0       0       0       0
       0       0       0       0       0       0       0       0
       0       0       0       0       0       0       0       0
       0       0       0       0       0       0       0       0
       0       0       0       0       0       0       0       0
       0       0       0       0       0       0       0       0
       0       0       0       0       0       0       0       0
       0       0       0       0       0       0       0       0
       0       0       0       0       0       0       0       0
       0       0       0       0       0       0       0       0
       0       0       0       0       0       0       0       0
       0       0       0       0       0       0       0       0
       0       0       0       0       0       0       0       0
       0       0       0       0       0       0       0       0
       0       0       0       0       0       0       0       0
       0       0       0       0       0       0       0       0
       0       0       0       0       0       0       0       0
       0       0       0       0       0       0       0       0
       0       0       0       0       0       0       0       0
       0       0       0       0       0       0       0       0
       0       0       0       0       0       0       0       0
       0       0       0       0       0       0       0       0
       0       0       0       0       0       0       0       0
       0       0       0       0       0       0       0       0
       0       0       0       0       0       0       0       0
       0       0       0       0       0       0       0       0
       0       0       0       0       0       0       0       0
       0       0       0       0       0       0       0       0
       0       0       0       0       0       0       0       0
       0       0       0       0       0       0       0       0
       0       0       0       0       0       0       0       0
       0       0       0       0       0       0       0       0
       0       0       0       0       0       0       0       0
       0       0       0       0       0       0       0       0
       0       0       0       0       0       0       0       0
       0       0       0       0       0       0       0       0
       0       0       0       0       0       0       0       0
       0       0       0       0       0       0       0       0
       0       0       0       0       0       0       0       0
       0       0       0       0       0       0       0       0
       0       0       0       0       0       0       0       0
       0       0       0       0       0       0       0       0
       0       0       0       0       0       0       0       0
       0       0       0       0       0       0       0       0
       0       0       0       0       0       0       0       0
       0       0       0       0       0       0       0       0
       0       0       0       0       0       0       0       0
       0       0       0       0       0       0       0       0
       0       0       0       0       0       0       0       0
       0       0       0       0       0       0       0       0
       0       0       0       0       0       0       0       0
       0       0       0       0       0       0       0       0
       0       0       0       0       0       0       0       0
       0       0       0       0       0       0       0       0
       0       0       0       0       0       0       0       0
       0       0       0       0       0       0       0       0
       0       0       0       0       0       0       0       0
       0       0       0       0       0       0       0       0
       0       0       0       0       0       0       0       0
       0       0       0       0       0       0       0       0
       0       0       0       0       0       0       0       0
       0       0       0       0       0       0       0       0
       0       0       0       0       0       0       0       0
       0       0       0       0       0       0       0       0
       0       0       0       0       0       0       0       0
       0       0       0       0       0       0       0       0
       0       0       0       0       0       0       0       0
       0       0       0       0       0       0       0       0
       0       0       0       0       0       0       0       0
       0       0       0       0       0       0       0       0
       0       0       0       0       0       0       0       0
       0       0       0       0       0       0       0       0
       0       0       0       0       0       0       0       0
       0       0       0       0       0       0       0       0
       0       0       0       0       0       0       0       0
       0       0       0       0       0       0       0       0
       0       0       0       0       0       0       0       0
       0       0       0       0       0       0       0       0
       0       0       0       0       0       0       0       0
       0       0       0       0       0       0       0       0
       0       0       0       0       0       0       0       0
       0       0       0       0       0       0       0       0
       0       0       0       0       0       0       0       0
       0       0       0       0       0       0       0       0
       0       0       0       0       0       0       0       0
       0       0       0       0       0       0       0       0
       0       0       0       0       0       0       0       0
       0       0       0       0       0       0       0       0
       0       0       0       0       0       0       0       0
       0       0       0       0       0       0       0       0
       0       0       0       0       0       0       0       0
       0       0       0       0       0       0       0       0
       0       0       0       0       0       0       0       0
       0       0       0       0       0       0       0       0
       0       0       0       0       0       0       0       0
       0       0       0       0       0       0       0       0
       0       0       0       0       0       0       0       0
       0       0       0       0       0       0       0       0
       0       0       0       0       0       0       0       0
       0       0       0       0       0       0       0       0
       0       0       0       0       0       0       0       0
       0       0       0       0       0       0       0       0
       0       0       0       0       0       0       0       0
       0       0       0       0       0       0       0       0
       0       0       0       0       0       0       0       0
       0       0       0       0       0       0       0       0
       0       0       0       0       0       0       0       0
       0       0       0       0       0       0       0       0
       0       0       0       0       0       0       0       0
       0       0       0       0       0       0       0       0
       0       0       0       0       0       0       0       0
       0       0       0       0       0       0       0       0
       0       0       0       0       0       0       0       0
       0       0       0       0       0       0       0       0
       0       0       0       0       0       0       0       0
       0       0       0       0       0       0       0       0
       0       0       0       0       0       0       0       0
       0       0       0       0       0       0       0       0
       0       0       0       0       0       0       0       0
       0       0       0       0       0       0       0       0
       0       0       0       0       0       0       0       0
       0       0       0       0       0       0       0       0
       0       0       0       0       0       0       0       0
       0       0       0       0       0       0       0       0
       0       0       0       0       0       0       0       0
       0       0       0       0       0       0       0       0
       0       0       0       0       0       0       0       0
       0       0       0       0       0       0       0       0
       0       0       0       0       0       0       0       0
       0       0       0       0       0       0       0       0
       0       0       0       0       0       0       0       0
       0       0       0       0       0       0       0       0
       0       0       0       0       0       0       0       0
       0       0       0       0       0       0       0       0
       0       0       0       0       0       0       0       0
       0       0       0       0       0       0       0       0
       0       0       0       0       0       0       0       0
       0       0       0       0       0       0       0       0
       0       0       0       0       0       0       0       0
       0       0       0       0       0       0       0       0
       0       0       0       0       0       0       0       0
       0       0       0       0       0       0       0       0
       0       0       0       0       0       0       0       0
       0       0       0       0       0       0       0       0
       0       0       0       0       0       0       0       0
       0       0       0       0       0       0       0       0
       0       0       0       0       0       0       0       0
       0       0       0       0       0       0       0       0
       0       0       0       0       0       0       0       0
       0       0       0       0       0       0       0       0
       0       0       0       0       0       0       0       0
       0       0       0       0       0       0       0       0
       0       0       0       0       0       0       0       0
       0       0       0       0       0       0       0       0
       0       0       0       0       0       0       0       0
       0       0       0       0       0       0       0       0
       0       0       0       0       0       0       0       0
       0       0       0       0       0       0       0       0
       0       0       0       0       0       0       0       0
       0       0       0       0       0       0       0       0
       0       0       0       0       0       0       0       0
       0       0       0       0       0       0       0       0
       0       0       0       0       0       0       0       0
       0       0       0       0       0       0       0       0
       0       0       0       0       0       0       0       0
       0       0       0       0       0       0       0       0
       0       0       0       0       0       0       0       0
       0       0       0       0       0       0       0       0
       0       0       0       0       0       0       0       0
       0       0       0       0       0       0       0       0
       0       0       0       0       0       0       0       0
       0       0       0       0       0       0       0       0
       0       0       0       0       0       0       0       0
       0       0       0       0       0       0       0       0
       0       0       0       0       0       0       0       0
       0       0       0       0       0       0       0       0
       0       0       0       0       0       0       0       0
       0       0       0       0       0       0       0       0
       0       0       0       0       0       0       0       0
       0       0       0       0       0       0       0       0
       0       0       0       0       0       0       0       0
       0       0       0       0       0       0       0       0
       0       0       0       0       0       0       0       0
       0       0       0       0       0       0       0       0
       0       0       0       0       0       0       0       0
       0       0       0       0       0       0       0       0
       0       0       0       0       0       0       0       0
       0       0       0       0       0       0       0       0
       0       0       0       0       0       0       0       0
       0       0       0       0       0       0       0       0
       0       0       0       0       0       0       0       0
       0       0       0       0       0       0       0       0
       0       0       0       0       0       0       0       0
       0       0       0       0       0       0       0       0
       0       0       0       0       0       0       0       0
       0       0       0       0       0       0       0       0
       0       0       0       0       0       0       0       0
       0       0       0       0       0       0       0       0
       0       0       0       0       0       0       0       0
       0       0       0       0       0       0       0       0
       0       0       0       0       0       0       0       0
       0       0       0       0       0       0       0       0
       0       0       0       0       0       0       0       0
       0       0       0       0       0       0       0       0
       0       0       0       0       0       0       0       0
       0       0       0       0       0       0       0       0
       0       0       0       0       0       0       0       0
       0       0       0       0       0       0       0       0
       0       0       0       0       0       0       0       0
       0       0       0       0       0       0       0       0
       0       0       0       0       0       0       0       0
       0       0       0       0       0       0       0       0
       0       0       0       0       0       0       0       0
       0       0       0       0       0       0       0       0
       0       0       0       0       0       0       0       0
       0       0       0       0       0       0       0       0
       0       0       0       0       0       0       0       0
       0       0       0       0       0       0       0       0
       0       0       0       0       0       0       0       0
       0       0       0       0       0       0       0       0
       0       0       0       0       0       0       0       0
       0       0       0       0       0       0       0       0
       0       0       0       0       0       0       0       0
       0       0       0       0       0       0       0       0
       0       0       0       0       0       0       0       0
       0       0       0       0       0       0       0       0
       0       0       0       0       0       0       0       0
       0       0       0       0       0       0       0       0
       0       0       0       0       0       0       0       0
       0       0       0       0       0       0       0       0
       0       0       0       0       0       0       0       0
       0       0       0       0       0       0       0       0
       0       0       0       0       0       0       0       0
       0       0       0       0       0       0       0       0
       0       0       0       0       0       0       0       0
       0       0       0       0       0       0       0       0
       0       0       0       0       0       0       0       0
       0       0       0       0       0       0       0       0
       0       0       0       0       0       0       0       0
       0       0       0       0       0       0       0       0
       0       0       0       0       0       0       0       0
       0       0       0       0       0       0       0       0
       0       0       0       0       0       0       0       0
       0       0       0       0       0       0       0       0
       0       0       0       0       0       0       0       0
       0       0       0       0       0       0       0       0
       0       0       0       0       0       0       0       0
       0       0       0       0       0       0       0       0
       0       0       0       0       0       0       0       0
       0       0       0       0       0       0       0       0
       0       0       0       0       0       0       0       0
       0       0       0       0       0       0       0       0
       0       0       0       0       0       0       0       0
       0       0       0       0       0       0       0       0
       0       0       0       0       0       0       0       0
       0       0       0       0       0       0       0       0
       0       0       0       0       0       0       0       0
       0       0       0       0       0       0       0       0
       0       0       0       0       0       0       0       0
       0       0       0       0       0       0       0       0
       0       0       0       0       0       0       0       0
       0       0       0       0       0       0       0       0
       0       0       0       0       0       0       0       0
       0       0       0       0       0       0       0       0
       0       0       0       0       0       0       0       0
       0       0       0       0       0       0       0       0
       0       0       0       0       0       0       0       0
       0       0       0       0       0       0       0       0
       0       0       0       0       0       0       0       0
       0       0       0       0       0       0       0       0
       0       0       0       0       0       0       0       0
       0       0       0       0       0       0       0       0
       0       0       0       0       0       0       0       0
       0       0       0       0       0       0       0       0
       0       0       0       0       0       0       0       0
       0       0       0       0       0       0       0       0
       0       0       0       0       0       0       0       0
       0       0       0       0       0       0       0       0
       0       0       0       0       0       0       0       0
       0       0       0       0       0       0       0       0
       0       0       0       0       0       0       0       0
       0       0       0       0       0       0       0       0
       0       0       0       0       0       0       0       0
       0       0       0       0       0       0       0       0
       0       0       0       0       0       0       0       0
       0       0       0       0       0       0       0       0
       0       0       0       0       0       0       0       0
       0       0       0       0       0       0       0       0
       0       0       0       0       0       0       0       0
       0       0       0       0       0       0       0       0
       0       0       0       0       0       0       0       0
       0       0       0       0       0       0       0       0
       0       0       0       0       0       0       0       0
       0       0       0       0       0       0       0       0
       0       0       0       0       0       0       0       0
       0       0       0       0       0       0       0       0
       0       0       0       0       0       0       0       0
       0       0       0       0       0       0       0       0
       0       0       0       0       0       0       0       0
       0       0       0       0       0       0       0       0
       0       0       0       0       0       0       0       0
       0       0       0       0       0       0       0       0
       0       0       0       0       0       0       0       0
       0       0       0       0       0       0       0       0
       0       0       0       0       0       0       0       0
       0       0       0       0       0       0       0       0
       0       0       0       0       0       0       0       0
       0       0       0       0       0       0       0       0
       0       0       0       0       0       0       0       0
       0       0       0       0       0       0       0       0
       0       0       0       0       0       0       0       0
       0       0       0       0       0       0       0       0
       0       0       0       0       0       0       0       0
       0       0       0       0       0       0       0       0
       0       0       0       0       0       0       0       0
       0       0       0       0       0       0       0       0
       0       0       0       0       0       0       0       0
       0       0       0       0       0       0       0       0
       0       0       0       0       0       0       0       0
       0       0       0       0       0       0       0       0
       0       0       0       0       0       0       0       0
       0       0       0       0       0       0       0       0
       0       0       0       0       0       0       0       0
       0       0       0       0       0       0       0       0
       0       0       0       0       0       0       0       0
       0       0       0       0       0       0       0       0
       0       0       0       0       0       0       0       0
       0       0       0       0       0       0       0       0
       0       0       0       0       0       0       0       0
       0       0       0       0       0       0       0       0
       0       0       0       0       0       0       0       0
       0       0       0       0       0       0       0       0
       0       0       0       0       0       0       0       0
       0       0       0       0       0       0       0       0
       0       0       0       0       0       0       0       0
       0       0       0       0       0       0       0       0
       0       0       0       0       0       0       0       0
       0       0       0       0       0       0       0       0
       0       0       0       0       0       0       0       0
       0       0       0       0       0       0       0       0
       0       0       0       0       0       0       0       0
       0       0       0       0       0       0       0       0
       0       0       0       0       0       0       0       0
       0       0       0       0       0       0       0       0
       0       0       0       0       0       0       0       0
       0       0       0       0       0       0       0       0
       0       0       0       0       0       0       0       0
       0       0       0       0       0       0       0       0
       0       0       0       0       0       0       0       0
       0       0       0       0       0       0       0       0
       0       0       0       0       0       0       0       0
       0       0       0       0       0       0       0       0
       0       0       0       0       0       0       0       0
       0       0       0       0       0       0       0       0
       0       0       0       0       0       0       0       0
       0       0       0       0       0       0       0       0
       0       0       0       0       0       0       0       0
       0       0       0       0       0       0       0       0
       0       0       0       0       0       0       0       0
       0       0       0       0       0       0       0       0
       0       0       0       0       0       0       0       0
       0       0       0       0       0       0       0       0
       0       0       0       0       0       0       0       0
       0       0       0       0       0       0       0       0
       0       0       0       0       0       0       0       0
       0       0       0       0       0       0       0       0
       0       0       0       0       0       0       0       0
       0       0       0       0       0       0       0       0
       0       0       0       0       0       0       0       0
       0       0       0       0       0       0       0       0
       0       0       0       0       0       0       0       0
       0       0       0       0       0       0       0       0
       0       0       0       0       0       0       0       0
       0       0       0       0       0       0       0       0
       0       0       0       0       0       0       0       0
       0       0       0       0       0       0       0       0
       0       0       0       0       0       0       0       0
       0       0       0       0       0       0       0       0
       0       0       0       0       0       0       0       0
       0       0       0       0       0       0       0       0
       0       0       0       0       0       0       0       0
       0       0       0       0       0       0       0       0
       0       0       0       0       0       0       0       0
       0       0       0       0       0       0       0       0
       0       0       0       0       0       0       0       0
       0       0       0       0       0       0       0       0
       0       0       0       0       0       0       0       0
       0       0       0       0       0       0       0       0
       0       0       0       0       0       0       0       0
       0       0       0       0       0       0       0       0
       0       0       0       0       0       0       0       0
       0       0       0       0       0       0       0       0
       0       0       0       0       0       0       0       0
       0       0       0       0       0       0       0       0
       0       0       0       0       0       0       0       0
       0       0       0       0       0       0       0       0
       0       0       0       0       0       0       0       0
       0       0       0       0       0       0       0       0
       0       0       0       0       0       0       0       0
       0       0       0       0       0       0       0       0
       0       0       0       0       0       0       0       0
       0       0       0       0       0       0       0       0
       0       0       0       0       0       0       0       0
       0       0       0       0       0       0       0       0
       0       0       0       0       0       0       0       0
       0       0       0       0       0       0       0       0
       0       0       0       0       0       0       0       0
       0       0       0       0       0       0       0       0
       0       0       0       0       0       0       0       0
       0       0       0       0       0       0       0       0
       0       0       0       0       0       0       0       0
       0       0       0       0       0       0       0       0
       0       0       0       0       0       0       0       0
       0       0       0       0       0       0       0       0
       0       0       0       0       0       0       0       0
       0       0       0       0       0       0       0       0
       0       0       0       0       0       0       0       0
       0       0       0       0       0       0       0       0
       0       0       0       0       0       0       0       0
       0       0       0       0       0       0       0       0
       0       0       0       0       0       0       0       0
       0       0       0       0       0       0       0       0
       0       0       0       0       0       0       0       0
       0       0       0       0       0       0       0       0
       0       0       0       0       0       0       0       0
       0       0       0       0       0       0       0       0
       0       0       0       0       0       0       0       0
       0       0       0       0       0       0       0       0
       0       0       0       0       0       0       0       0
       0       0       0       0       0       0       0       0
       0       0       0       0       0       0       0       0
       0       0       0       0       0       0       0       0
       0       0       0       0       0       0       0       0
       0       0       0       0       0       0       0       0
       0       0       0       0       0       0       0       0
       0       0       0       0       0       0       0       0
       0       0       0       0       0       0       0       0
       0       0       0       0       0       0       0       0
       0       0       0       0       0       0       0       0
       0       0       0       0       0       0       0       0
       0       0       0       0       0       0       0       0
       0       0       0       0       0       0       0       0
       0       0       0       0       0       0       0       0
       0       0       0       0       0       0       0       0
       0       0       0       0       0       0       0       0
       0       0       0       0       0       0       0       0
       0       0       0       0       0       0       0       0
       0       0       0       0       0       0       0       0
       0       0       0       0       0       0       0       0
       0       0       0       0       0       0       0       0
       0       0       0       0       0       0       0       0
       0       0       0       0       0       0       0       0
       0       0       0       0       0       0       0       0
       0       0       0       0       0       0       0       0
       0       0       0       0       0       0       0       0
       0       0       0       0       0       0       0       0
       0       0       0       0       0       0       0       0
       0       0       0       0       0       0       0       0
       0       0       0       0       0       0       0       0
       0       0       0       0       0       0       0       0
       0       0       0       0       0       0       0       0
       0       0       0       0       0       0       0       0
       0       0       0       0       0       0       0       0
       0       0       0       0       0       0       0       0
       0       0       0       0       0       0       0       0
       0       0       0       0       0       0       0       0
       0       0       0       0       0       0       0       0
       0       0       0       0       0       0       0       0
       0       0       0       0       0       0       0       0
       0       0       0       0       0       0       0       0
       0       0       0       0       0       0       0       0
       0       0       0       0       0       0       0       0
       0       0       0       0       0       0       0       0
       0       0       0       0       0       0       0       0
       0       0       0       0       0       0       0       0
       0       0       0       0       0       0       0       0
       0       0       0       0       0       0       0       0
       0       0       0       0       0       0       0       0
       0       0       0       0       0       0       0       0
       0       0       0       0       0       0       0       0
       0       0       0       0       0       0       0       0
       0       0       0       0       0       0       0       0
       0       0       0       0       0       0       0       0
       0       0       0       0       0       0       0       0
       0       0       0       0       0       0       0       0
       0       0       0       0       0       0       0       0
       0       0       0       0       0       0       0       0
       0       0       0       0       0       0       0       0
       0       0       0       0       0       0       0       0
       0       0       0       0       0       0       0       0
       0       0       0       0       0       0       0       0
       0       0       0       0       0       0       0       0
       0       0       0       0       0       0       0       0
       0       0       0       0       0       0       0       0
       0       0       0       0       0       0       0       0
       0       0       0       0       0       0       0       0
       0       0       0       0       0       0       0       0
       0       0       0       0       0       0       0       0
       0       0       0       0       0       0       0       0
       0       0       0       0       0       0       0       0
       0       0       0       0       0       0       0       0
       0       0       0       0       0       0       0       0
       0       0       0       0       0       0       0       0
       0       0       0       0       0       0       0       0
       0       0       0       0       0       0       0       0
       0       0       0       0       0       0       0       0
       0       0       0       0       0       0       0       0
       0       0       0       0       0       0       0       0
       0       0       0       0       0       0       0       0
       0       0       0       0       0       0       0       0
       0       0       0       0       0       0       0       0
       0       0       0       0       0       0       0       0
       0       0       0       0       0       0       0       0
       0       0       0       0       0       0       0       0
       0       0       0       0       0       0       0       0
       0       0       0       0       0       0       0       0
       0       0       0       0       0       0       0       0
       0       0       0       0       0       0       0       0
       0       0       0       0       0       0       0       0
       0       0       0       0       0       0       0       0
       0       0       0       0       0       0       0       0
       0       0       0       0       0       0       0       0
       0       0       0       0       0       0       0       0
       0       0       0       0       0       0       0       0
       0       0       0       0       0       0       0       0
       0       0       0       0       0       0       0       0
       0       0       0       0       0       0       0       0
       0       0       0       0       0       0       0       0
       0       0       0       0       0       0       0       0
       0       0       0       0       0       0       0       0
       0       0       0       0       0       0       0       0
       0       0       0       0       0       0       0       0
       0       0       0       0       0       0       0       0
       0       0       0       0       0       0       0       0
       0       0       0       0       0       0       0       0
       0       0       0       0       0       0       0       0
       0       0       0       0       0       0       0       0
       0       0       0       0       0       0       0       0
       0       0       0       0       0       0       0       0
       0       0       0       0       0       0       0       0
       0       0       0       0       0       0       0       0
       0       0       0       0       0       0       0       0
       0       0       0       0       0       0       0       0
       0       0       0       0       0       0       0       0
       0       0       0       0       0       0       0       0
       0       0       0       0       0       0       0       0
       0       0       0       0       0       0       0       0
       0       0       0       0       0       0       0       0
       0       0       0       0       0       0       0       0
       0       0       0       0       0       0       0       0
       0       0       0       0       0       0       0       0
       0       0       0       0       0       0       0       0
       0       0       0       0       0       0       0       0
       0       0       0       0       0       0       0       0
       0       0       0       0       0       0       0       0
       0       0       0       0       0       0       0       0
       0       0       0       0       0       0       0       0
       0       0       0       0       0       0       0       0
       0       0       0       0       0       0       0       0
       0       0       0       0       0       0       0       0
       0       0       0       0       0       0       0       0
       0       0       0       0       0       0       0       0
       0       0       0       0       0       0       0       0
       0       0       0       0       0       0       0       0
       0       0       0       0       0       0       0       0
       0       0       0       0       0       0       0       0
       0       0       0       0       0       0       0       0
       0       0       0       0       0       0       0       0
       0       0       0       0       0       0       0       0
       0       0       0       0       0       0       0       0
       0       0       0       0       0       0       0       0
       0       0       0       0       0       0       0       0
       0       0       0       0       0       0       0       0
       0       0       0       0       0       0       0       0
       0       0       0       0       0       0       0       0
       0       0       0       0       0       0       0       0
       0       0       0       0       0       0       0       0
       0       0       0       0       0       0       0       0
       0       0       0       0       0       0       0       0
       0       0       0       0       0       0       0       0
       0       0       0       0       0       0       0       0
       0       0       0       0       0       0       0       0
       0       0       0       0       0       0       0       0
       0       0       0       0       0       0       0       0
       0       0       0       0       0       0       0       0
       0       0       0       0       0       0       0       0
       0       0       0       0       0       0       0       0
       0       0       0       0       0       0       0       0
       0       0       0       0       0       0       0       0
       0       0       0       0       0       0       0       0
       0       0       0       0       0       0       0       0
       0       0       0       0       0       0       0       0
       0       0       0       0       0       0       0       0
       0       0       0       0       0       0       0       0
       0       0       0       0       0       0       0       0
       0       0       0       0       0       0       0       0
       0       0       0       0       0       0       0       0
       0       0       0       0       0       0       0       0
       0       0       0       0       0       0       0       0
       0       0       0       0       0       0       0       0
       0       0       0       0       0       0       0       0
       0       0       0       0       0       0       0       0
       0       0       0       0       0       0       0       0
       0       0       0       0       0       0       0       0
       0       0       0       0       0       0       0       0
       0       0       0       0       0       0       0       0
       0       0       0       0       0       0       0       0
       0       0       0       0       0       0       0       0
       0       0       0       0       0       0       0       0
       0       0       0       0       0       0       0       0
       0       0       0       0       0       0       0       0
       0       0       0       0       0       0       0       0
       0       0       0       0       0       0       0       0
       0       0       0       0       0       0       0       0
       0       0       0       0       0       0       0       0
       0       0       0       0       0       0       0       0
       0       0       0       0       0       0       0       0
       0       0       0       0       0       0       0       0
       0       0       0       0       0       0       0       0
       0       0       0       0       0       0       0       0
       0       0       0       0       0       0       0       0
       0       0       0       0       0       0       0       0
       0       0       0       0       0       0       0       0
       0       0       0       0       0       0       0       0
       0       0       0       0       0       0       0       0
       0       0       0       0       0       0       0       0
       0       0       0       0       0       0       0       0
       0       0       0       0       0       0       0       0
       0       0       0       0       0       0       0       0
       0       0       0       0       0       0       0       0
       0       0       0       0       0       0       0       0
       0       0       0       0       0       0       0       0
       0       0       0       0       0       0       0       0
       0       0       0       0       0       0       0       0
       0       0       0       0       0       0       0       0
       0       0       0       0       0       0       0       0
       0       0       0       0       0       0       0       0
       0       0       0       0       0       0       0       0
       0       0       0       0       0       0       0       0
       0       0       0       0       0       0       0       0
       0       0       0       0       0       0       0       0
       0       0       0       0       0       0       0       0
       0       0       0       0       0       0       0       0
       0       0       0       0       0       0       0       0
       0       0       0       0       0       0       0       0
       0       0       0       0       0       0       0       0
       0       0       0       0       0       0       0       0
       0       0       0       0       0       0       0       0
       0       0       0       0       0       0       0       0
       0       0       0       0       0       0       0       0
       0       0       0       0       0       0       0       0
       0       0       0       0       0       0       0       0
       0       0       0       0       0       0       0       0
       0       0       0       0       0       0       0       0
       0       0       0       0       0       0       0       0
       0       0       0       0       0       0       0       0
       0       0       0       0       0       0       0       0
       0       0       0       0       0       0       0       0
       0       0       0       0       0       0       0       0
       0       0       0       0       0       0       0       0
       0       0       0       0       0       0       0       0
       0       0       0       0       0       0       0       0
       0       0       0       0       0       0       0       0
       0       0       0       0       0       0       0       0
       0       0       0       0       0       0       0       0
       0       0       0       0       0       0       0       0
       0       0       0       0       0       0       0       0
       0       0       0       0       0       0       0       0
       0       0       0       0       0       0       0       0
       0       0       0       0       0       0       0       0
       0       0       0       0       0       0       0       0
       0       0       0       0       0       0       0       0
       0       0       0       0       0       0       0       0
       0       0       0       0       0       0       0       0
       0       0       0       0       0       0       0       0
       0       0       0       0       0       0       0       0
       0       0       0       0       0       0       0       0
       0       0       0       0       0       0       0       0
       0       0       0       0       0       0       0       0
       0       0       0       0       0       0       0       0
       0       0       0       0       0       0       0       0
       0       0       0       0       0       0       0       0
       0       0       0       0       0       0       0       0
       0       0       0       0       0       0       0       0
       0       0       0       0       0       0       0       0
       0       0       0       0       0       0       0       0
       0       0       0       0       0       0       0       0
       0       0       0       0       0       0       0       0
       0       0       0       0       0       0       0       0
       0       0       0       0       0       0       0       0
       0       0       0       0       0       0       0       0
       0       0       0       0       0       0       0       0
       0       0       0       0       0       0       0       0
       0       0       0       0       0       0       0       0
       0       0       0       0       0       0       0       0
       0       0       0       0       0       0       0       0
       0       0       0       0       0       0       0       0
       0       0       0       0       0       0       0       0
       0       0       0       0       0       0       0       0
       0       0       0       0       0       0       0       0
       0       0       0       0       0       0       0       0
       0       0       0       0       0       0       0       0
       0       0       0       0       0       0       0       0
       0       0       0       0       0       0       0       0
       0       0       0       0       0       0       0       0
       0       0       0       0       0       0       0       0
       0       0       0       0       0       0       0       0
       0       0       0       0       0       0       0       0
       0       0       0       0       0       0       0       0
       0       0       0       0       0       0       0       0
       0       0       0       0       0       0       0       0
       0       0       0       0       0       0       0       0
       0       0       0       0       0       0       0       0
       0       0       0       0       0       0       0       0
       0       0       0       0       0       0       0       0
       0       0       0       0       0       0       0       0
       0       0       0       0       0       0       0       0
       0       0       0       0       0       0       0       0
       0       0       0       0       0       0       0       0
       0       0       0       0       0       0       0       0
       0       0       0       0       0       0       0       0
       0       0       0       0       0       0       0       0
       0       0       0       0       0       0       0       0
       0       0       0       0       0       0       0       0
       0       0       0       0       0       0       0       0
       0       0       0       0       0       0       0       0
       0       0       0       0       0       0       0       0
       0       0       0       0       0       0       0       0
       0       0       0       0       0       0       0       0
       0       0       0       0       0       0       0       0
       0       0       0       0       0       0       0       0
       0       0       0       0       0       0       0       0
       0       0       0       0       0       0       0       0
       0       0       0       0       0       0       0       0
       0       0       0       0       0       0       0       0
       0       0       0       0       0       0       0       0
       0       0       0       0       0       0       0       0
       0       0       0       0       0       0       0       0
       0       0       0       0       0       0       0       0
       0       0       0       0       0       0       0       0
       0       0       0       0       0       0       0       0
       0       0       0       0       0       0       0       0
       0       0       0       0       0       0       0       0
       0       0       0       0       0       0       0       0
       0       0       0       0       0       0       0       0
       0       0       0       0       0       0       0       0
       0       0       0       0       0       0       0       0
       0       0       0       0       0       0       0       0
       0       0       0       0       0       0       0       0
       0       0       0       0       0       0       0       0
       0       0       0       0       0       0       0       0
       0       0       0       0       0       0       0       0
       0       0       0       0       0       0       0       0
       0       0       0       0       0       0       0       0
       0       0       0       0       0       0       0       0
       0       0       0       0       0       0       0       0
       0       0       0       0       0       0       0       0
       0       0       0       0       0       0       0       0
       0       0       0       0       0       0       0       0
       0       0       0       0       0       0       0       0
       0       0       0       0       0       0       0       0
       0       0       0       0       0       0       0       0
       0       0       0       0       0       0       0       0
       0       0       0       0       0       0       0       0
       0       0       0       0       0       0       0       0
       0       0       0       0       0       0       0       0
       0       0       0       0       0       0       0       0
       0       0       0       0       0       0       0       0
       0       0       0       0       0       0       0       0
       0       0       0       0       0       0       0       0
       0       0       0       0       0       0       0       0
       0       0       0       0       0       0       0       0
       0       0       0       0       0       0       0       0
       0       0       0       0       0       0       0       0
       0       0       0       0       0       0       0       0
       0       0       0       0       0       0       0       0
       0       0       0       0       0       0       0       0
       0       0       0       0       0       0       0       0
       0       0       0       0       0       0       0       0
       0       0       0       0       0       0       0       0
       0       0       0       0       0       0       0       0
       0       0       0       0       0       0       0       0
       0       0       0       0       0       0       0       0
       0       0       0       0       0       0       0       0
       0       0       0       0       0       0       0       0
       0       0       0       0       0       0       0       0
       0       0       0       0       0       0       0       0
       0       0       0       0       0       0       0       0
       0       0       0       0       0       0       0       0
       0       0       0       0       0       0       0       0
       0       0       0       0       0       0       0       0
       0       0       0       0       0       0       0       0
       0       0       0       0       0       0       0       0
       0       0       0       0       0       0       0       0
       0       0       0       0       0       0       0       0
       0       0       0       0       0       0       0       0
       0       0       0       0       0       0       0       0
       0       0       0       0       0       0       0       0
       0       0       0       0       0       0       0       0
       0       0       0       0       0       0       0       0
       0       0       0       0       0       0       0       0
       0       0       0       0       0       0       0       0
       0       0       0       0       0       0       0       0
       0       0       0       0       0       0       0       0
       0       0       0       0       0       0       0       0
       0       0       0       0       0       0       0       0
       0       0       0       0       0       0       0       0
       0       0       0       0       0       0       0       0
       0       0       0       0       0       0       0       0
       0       0       0       0       0       0       0       0
       0       0       0       0       0       0       0       0
       0       0       0       0       0       0       0       0
       0       0       0       0       0       0       0       0
       0       0       0       0       0       0       0       0
       0       0       0       0       0       0       0       0
       0       0       0       0       0       0       0       0
       0       0       0       0       0       0       0       0
       0       0       0       0       0       0       0       0
       0       0       0       0       0       0       0       0
       0       0       0       0       0       0       0       0
       0       0       0       0       0       0       0       0
       0       0       0       0       0       0       0       0
       0       0       0       0       0       0       0       0
       0       0       0       0       0       0       0       0
       0       0       0       0       0       0       0       0
       0       0       0       0       0       0       0       0
       0       0       0       0       0       0       0       0
       0       0       0       0       0       0       0       0
       0       0       0       0       0       0       0       0
       0       0       0       0       0       0       0       0
       0       0       0       0       0       0       0       0
       0       0       0       0       0       0       0       0
       0       0       0       0       0       0       0       0
       0       0       0       0       0       0       0       0
       0       0       0       0       0       0       0       0
       0       0       0       0       0       0       0       0
       0       0       0       0       0       0       0       0
       0       0       0       0       0       0       0       0
       0       0       0       0       0       0       0       0
       0       0       0       0       0       0       0       0
       0       0       0       0       0       0       0       0
       0       0       0       0       0       0       0       0
       0       0       0       0       0       0       0       0
       0       0       0       0       0       0       0       0
       0       0       0       0       0       0       0       0
       0       0       0       0       0       0       0       0
       0       0       0       0       0       0       0       0
       0       0       0       0       0       0       0       0
       0       0       0       0       0       0       0       0
       0       0       0       0       0       0       0       0
       0       0       0       0       0       0       0       0
       0       0       0       0       0       0       0       0
       0       0       0       0       0       0       0       0
       0       0       0       0       0       0       0       0
       0       0       0       0       0       0       0       0
       0       0       0       0       0       0       0       0
       0       0       0       0       0       0       0       0
       0       0       0       0       0       0       0       0
       0       0       0       0       0       0       0       0
       0       0       0       0       0       0       0       0
       0       0       0       0       0       0       0       0
       0       0       0       0       0       0       0       0
       0       0       0       0       0       0       0       0
       0       0       0       0       0       0       0       0
       0       0       0       0       0       0       0       0
       0       0       0       0       0       0       0       0
       0       0       0       0       0       0       0       0
       0       0       0       0       0       0       0       0
       0       0       0       0       0       0       0       0
       0       0       0       0       0       0       0       0
       0       0       0       0       0       0       0       0
       0       0       0       0       0       0       0       0
       0       0       0       0       0       0       0       0
       0       0       0       0       0       0       0       0
       0       0       0       0       0       0       0       0
       0       0       0       0       0       0       0       0
       0       0       0       0       0       0       0       0
       0       0       0       0       0       0       0       0
       0       0       0       0       0       0       0       0
       0       0       0       0       0       0       0       0
       0       0       0       0       0       0       0       0
       0       0       0       0       0       0       0       0
       0       0       0       0       0       0       0       0
       0       0       0       0       0       0       0       0
       0       0       0       0       0       0       0       0
       0       0       0       0       0       0       0       0
       0       0       0       0       0       0       0       0
       0       0       0       0       0       0       0       0
       0       0       0       0       0       0       0       0
       0       0       0       0       0       0       0       0
       0       0       0       0       0       0       0       0
       0       0       0       0       0       0       0       0
       0       0       0       0       0       0       0       0
       0       0       0       0       0       0       0       0
       0       0       0       0       0       0       0       0
       0       0       0       0       0       0       0       0
       0       0       0       0       0       0       0       0
       0       0       0       0       0       0       0       0
       0       0       0       0       0       0       0       0
       0       0       0       0       0       0       0       0
       0       0       0       0       0       0       0       0
       0       0       0       0       0       0       0       0
       0       0       0       0       0       0       0       0
       0       0       0       0       0       0       0       0
       0       0       0       0       0       0       0       0
       0       0       0       0       0       0       0       0
       0       0       0       0       0       0       0       0
       0       0       0       0       0       0       0       0
       0       0       0       0       0       0       0       0
       0       0       0       0       0       0       0       0
       0       0       0       0       0       0       0       0
       0       0       0       0       0       0       0       0
       0       0       0       0       0       0       0       0
       0       0       0       0       0       0       0       0
       0       0       0       0       0       0       0       0
       0       0       0       0       0       0       0       0
       0       0       0       0       0       0       0       0
       0       0       0       0       0       0       0       0
       0       0       0       0       0       0       0       0
       0       0       0       0       0       0       0       0
       0       0       0       0       0       0       0       0
       0       0       0       0       0       0       0       0
       0       0       0       0       0       0       0       0
       0       0       0       0       0       0       0       0
       0       0       0       0       0       0       0       0
       0       0       0       0       0       0       0       0
       0       0       0       0       0       0       0       0
       0       0       0       0       0       0       0       0
       0       0       0       0       0       0       0       0
       0       0       0       0       0       0       0       0
       0       0       0       0       0       0       0       0
       0       0       0       0       0       0       0       0
       0       0       0       0       0       0       0       0
       0       0       0       0       0       0       0       0
       0       0       0       0       0       0       0       0
       0       0       0       0       0       0       0       0
       0       0       0       0       0       0       0       0
       0       0       0       0       0       0       0       0
       0       0       0       0       0       0       0       0
       0       0       0       0       0       0       0       0
       0       0       0       0       0       0       0       0
       0       0       0       0       0       0       0       0
       0       0       0       0       0       0       0       0
       0       0       0       0       0       0       0       0
       0       0       0       0       0       0       0       0
       0       0       0       0       0       0       0       0
       0       0       0       0       0       0       0       0
       0       0       0       0       0       0       0       0
       0       0       0       0       0       0       0       0
       0       0       0       0       0       0       0       0
       0       0       0       0       0       0       0       0
       0       0       0       0       0       0       0       0
       0       0       0       0       0       0       0       0
       0       0       0       0       0       0       0       0
       0       0       0       0       0       0       0       0
       0       0       0       0       0       0       0       0
       0       0       0       0       0       0       0       0
       0       0       0       0       0       0       0       0
       0       0       0       0       0       0       0       0
       0       0       0       0       0       0       0       0
       0       0       0       0       0       0       0       0
       0       0       0       0       0       0       0       0
       0       0       0       0       0       0       0       0
       0       0       0       0       0       0       0       0
       0       0       0       0       0       0       0       0
       0       0       0       0       0       0       0       0
       0       0       0       0       0       0       0       0
       0       0       0       0       0       0       0       0
       0       0       0       0       0       0       0       0
       0       0       0       0       0       0       0       0
       0       0       0       0       0       0       0       0
       0       0       0       0       0       0       0       0
       0       0       0       0       0       0       0       0
       0       0       0       0       0       0       0       0
       0       0       0       0       0       0       0       0
       0       0       0       0       0       0       0       0
       0       0       0       0       0       0       0       0
       0       0       0       0       0       0       0       0
       0       0       0       0       0       0       0       0
       0       0       0       0       0       0       0       0
       0       0       0       0       0       0       0       0
       0       0       0       0       0       0       0       0
       0       0       0       0       0       0       0       0
       0       0       0       0       0       0       0       0
       0       0       0       0       0       0       0       0
       0       0       0       0       0       0       0       0
       0       0       0       0       0       0       0       0
       0       0       0       0       0       0       0       0
       0       0       0       0       0       0       0       0
       0       0       0       0       0       0       0       0
       0       0       0       0       0       0       0       0
       0       0       0       0       0       0       0       0
       0       0       0       0       0       0       0       0
       0       0       0       0       0       0       0       0
       0       0       0       0       0       0       0       0
       0       0       0       0       0       0       0       0
       0       0       0       0       0       0       0       0
       0       0       0       0       0       0       0       0
       0       0       0       0       0       0       0       0
       0       0       0       0       0       0       0       0
       0       0       0       0       0       0       0       0
       0       0       0       0       0       0       0       0
       0       0       0       0       0       0       0       0
       0       0       0       0       0       0       0       0
       0       0       0       0       0       0       0       0
       0       0       0       0       0       0       0       0
       0       0       0       0       0       0       0       0
       0       0       0       0       0       0       0       0
       0       0       0       0       0       0       0       0
       0       0       0       0       0       0       0       0
       0       0       0       0       0       0       0       0
       0       0       0       0       0       0       0       0
       0       0       0       0       0       0       0       0
       0       0       0       0       0       0       0       0
       0       0       0       0       0       0       0       0
       0       0       0       0       0       0       0       0
       0       0       0       0       0       0       0       0
       0       0       0       0       0       0       0       0
       0       0       0       0       0       0       0       0
       0       0       0       0       0       0       0       0
       0       0       0       0       0       0       0       0
       0       0       0       0       0       0       0       0
       0       0       0       0       0       0       0       0
       0       0       0       0       0       0       0       0
       0       0       0       0       0       0       0       0
       0       0       0       0       0       0       0       0
       0       0       0       0       0       0       0       0
       0       0       0       0       0       0       0       0
       0       0       0       0       0       0       0       0
       0       0       0       0       0       0       0       0
       0       0       0       0       0       0       0       0
       0       0       0       0       0       0       0       0
       0       0       0       0       0       0       0       0
       0       0       0       0       0       0       0       0
       0       0       0       0       0       0       0       0
       0       0       0       0       0       0       0       0
       0       0       0       0       0       0       0       0
       0       0       0       0       0       0       0       0
       0       0       0       0       0       0       0       0
       0       0       0       0       0       0       0       0
       0       0       0       0       0       0       0       0
       0       0       0       0       0       0       0       0
       0       0       0       0       0       0       0       0
       0       0       0       0       0       0       0       0
       0       0       0       0       0       0       0       0
       0       0       0       0       0       0       0       0
       0       0       0       0       0       0       0       0
       0       0       0       0       0       0       0       0
       0       0       0       0       0       0       0       0
       0       0       0       0       0       0       0       0
       0       0       0       0       0       0       0       0
       0       0       0       0       0       0       0       0
       0       0       0       0       0       0       0       0
       0       0       0       0       0       0       0       0
       0       0       0       0       0       0       0       0
       0       0       0       0       0       0       0       0
       0       0       0       0       0       0       0       0
       0       0       0       0       0       0       0       0
       0       0       0       0       0       0       0       0
       0       0       0       0       0       0       0       0
       0       0       0       0       0       0       0       0
       0       0       0       0       0       0       0       0
       0       0       0       0       0       0       0       0
       0       0       0       0       0       0       0       0
       0       0       0       0       0       0       0       0
       0       0       0       0       0       0       0       0
       0       0       0       0       0       0       0       0
       0       0       0       0       0       0       0       0
       0       0       0       0       0       0       0       0
       0       0       0       0       0       0       0       0
       0       0       0       0       0       0       0       0
       0       0       0       0       0       0       0       0
       0       0       0       0       0       0       0       0
       0       0       0       0       0       0       0       0
       0       0       0       0       0       0       0       0
       0       0       0       0       0       0       0       0
       0       0       0       0       0       0       0       0
       0       0       0       0       0       0       0       0
       0       0       0       0       0       0       0       0
       0       0       0       0       0       0       0       0
       0       0       0       0       0       0       0       0
       0       0       0       0       0       0       0       0
       0       0       0       0       0       0       0       0
       0       0       0       0       0       0       0       0
       0       0       0       0       0       0       0       0
       0       0       0       0       0       0       0       0
       0       0       0       0       0       0       0       0
       0       0       0       0       0       0       0       0
       0       0       0       0       0       0       0       0
       0       0       0       0       0       0       0       0
       0       0       0       0       0       0       0       0
       0       0       0       0       0       0       0       0
       0       0       0       0       0       0       0       0
       0       0       0       0       0       0       0       0
       0       0       0       0       0       0       0       0
       0       0       0       0       0       0       0       0
       0       0       0       0       0       0       0       0
       0       0       0       0       0       0       0       0
       0       0       0       0       0       0       0       0
       0       0       0       0       0       0       0       0
       0       0       0       0       0       0       0       0
       0       0       0       0       0       0       0       0
       0       0       0       0       0       0       0       0
       0       0       0       0       0       0       0       0
       0       0       0       0       0       0       0       0
       0       0       0       0       0       0       0       0
       0       0       0       0       0       0       0       0
       0       0       0       0       0       0       0       0
       0       0       0       0       0       0       0       0
       0       0       0       0       0       0       0       0
       0       0       0       0       0       0       0       0
       0       0       0       0       0       0       0       0
       0       0       0       0       0       0       0       0
       0       0       0       0       0       0       0       0
       0       0       0       0       0       0       0       0
       0       0       0       0       0       0       0       0
       0       0       0       0       0       0       0       0
       0       0       0       0       0       0       0       0
       0       0       0       0       0       0       0       0
       0       0       0       0       0       0       0       0
       0       0       0       0       0       0       0       0
       0       0       0       0       0       0       0       0
       0       0       0       0       0       0       0       0
       0       0       0       0       0       0       0       0
       0       0       0       0       0       0       0       0
       0       0       0       0       0       0       0       0
       0       0       0       0       0       0       0       0
       0       0       0       0       0       0       0       0
       0       0       0       0       0       0       0       0
       0       0       0       0       0       0       0       0
       0       0       0       0       0       0       0       0
       0       0       0       0       0       0       0       0
       0       0       0       0       0       0       0       0
       0       0       0       0       0       0       0       0
       0       0       0       0       0       0       0       0
       0       0       0       0       0       0       0       0
       0       0       0       0       0       0       0       0
       0       0       0       0       0       0       0       0
       0       0       0       0       0       0       0       0
       0       0       0       0       0       0       0       0
       0       0       0       0       0       0       0       0
       0       0       0       0       0       0       0       0
       0       0       0       0       0       0       0       0
       0       0       0       0       0       0       0       0
       0       0       0       0       0       0       0       0
       0       0       0       0       0       0       0       0
       0       0       0       0       0       0       0       0
       0       0       0       0       0       0       0       0
       0       0       0       0       0       0       0       0
       0       0       0       0       0       0       0       0
       0       0       0       0       0       0       0       0
       0       0       0       0       0       0       0       0
       0       0       0       0       0       0       0       0
       0       0       0       0       0       0       0       0
       0       0       0       0       0       0       0       0
       0       0       0       0       0       0       0       0
       0       0       0       0       0       0       0       0
       0       0       0       0       0       0       0       0
       0       0       0       0       0       0       0       0
       0       0       0       0       0       0       0       0
       0       0       0       0       0       0       0       0
       0       0       0       0       0       0       0       0
       0       0       0       0       0       0       0       0
       0       0       0       0       0       0       0       0
       0       0       0       0       0       0       0       0
       0       0       0       0       0       0       0       0
       0       0       0       0       0       0       0       0
       0       0       0       0       0       0       0       0
       0       0       0       0       0       0       0       0
       0       0       0       0       0       0       0       0
       0       0       0       0       0       0       0       0
       0       0       0       0       0       0       0       0
       0       0       0       0       0       0       0       0
       0       0       0       0       0       0       0       0
       0       0       0       0       0       0       0       0
       0       0       0       0       0       0       0       0
       0       0       0       0       0       0       0       0
       0       0       0       0       0       0       0       0
       0       0       0       0       0       0       0       0
       0       0       0       0       0       0       0       0
       0       0       0       0       0       0       0       0
       0       0       0       0       0       0       0       0
       0       0       0       0       0       0       0       0
       0       0       0       0       0       0       0       0
       0       0       0       0       0       0       0       0
       0       0       0       0       0       0       0       0
       0       0       0       0       0       0       0       0
       0       0       0       0       0       0       0       0
       0       0       0       0       0       0       0       0
       0       0       0       0       0       0       0       0
       0       0       0       0       0       0       0       0
       0       0       0       0       0       0       0       0
       0       0       0       0       0       0       0       0
       0       0       0       0       0       0       0       0
       0       0       0       0       0       0       0       0
       0       0       0       0       0       0       0       0
       0       0       0       0       0       0       0       0
       0       0       0       0       0       0       0       0
       0       0       0       0       0       0       0       0
       0       0       0       0       0       0       0       0
       0       0       0       0       0       0       0       0
       0       0       0       0       0       0       0       0
       0       0       0       0       0       0       0       0
       0       0       0       0       0       0       0       0
       0       0       0       0       0       0       0       0
       0       0       0       0       0       0       0       0
       0       0       0       0       0       0       0       0
       0       0       0       0       0       0       0       0
       0       0       0       0       0       0       0       0
       0       0       0       0       0       0       0       0
       0       0       0       0       0       0       0       0
       0       0       0       0       0       0       0       0
       0       0       0       0       0       0       0       0
       0       0       0       0       0       0       0       0
       0       0       0       0       0       0       0       0
       0       0       0       0       0       0       0       0
       0       0       0       0       0       0       0       0
       0       0       0       0       0       0       0       0
       0       0       0       0       0       0       0       0
       0       0       0       0       0       0       0       0
       0       0       0       0       0       0       0       0
       0       0       0       0       0       0       0       0
       0       0       0       0       0       0       0       0
       0       0       0       0       0       0       0       0
       0       0       0       0       0       0       0       0
       0       0       0       0       0       0       0       0
       0       0       0       0       0       0       0       0
       0       0       0       0       0       0       0       0
       0       0       0       0       0       0       0       0
       0       0       0       0       0       0       0       0
       0       0       0       0       0       0       0       0
       0       0       0       0       0       0       0       0
       0       0       0       0       0       0       0       0
       0       0       0       0       0       0       0       0
       0       0       0       0       0       0       0       0
       0       0       0       0       0       0       0       0
       0       0       0       0       0       0       0       0
       0       0       0       0       0       0       0       0
       0       0       0       0       0       0       0       0
       0       0       0       0       0       0       0       0
       0       0       0       0       0       0       0       0
       0       0       0       0       0       0       0       0
       0       0       0       0       0       0       0       0
       0       0       0       0       0       0       0       0
       0       0       0       0       0       0       0       0
       0       0       0       0       0       0       0       0
       0       0       0       0       0       0       0       0
       0       0       0       0       0       0       0       0
       0       0       0       0       0       0       0       0
       0       0       0       0       0       0       0       0
       0       0       0       0       0       0       0       0
       0       0       0       0       0       0       0       0
       0       0       0       0       0       0       0       0
       0       0       0       0       0       0       0       0
       0       0       0       0       0       0       0       0
       0       0       0       0       0       0       0       0
       0       0       0       0       0       0       0       0
       0       0       0       0       0       0       0       0
       0       0       0       0       0       0       0       0
       0       0       0       0       0       0       0       0
       0       0       0       0       0       0       0       0
       0       0       0       0       0       0       0       0
       0       0       0       0       0       0       0       0
       0       0       0       0       0       0       0       0
       0       0       0       0       0       0       0       0
       0       0       0       0       0       0       0       0
       0       0       0       0       0       0       0       0
       0       0       0       0       0       0       0       0
       0       0       0       0       0       0       0       0
       0       0       0       0       0       0       0       0
       0       0       0       0       0       0       0       0
       0       0       0       0       0       0       0       0
       0       0       0       0       0       0       0       0
       0       0       0       0       0       0       0       0
       0       0       0       0       0       0       0       0
       0       0       0       0       0       0       0       0
       0       0       0       0       0       0       0       0
       0       0       0       0       0       0       0       0
       0       0       0       0       0       0       0       0
       0       0       0       0       0       0       0       0
       0       0       0       0       0       0       0       0
       0       0       0       0       0       0       0       0
       0       0       0       0       0       0       0       0
       0       0       0       0       0       0       0       0
       0       0       0       0       0       0       0       0
       0       0       0       0       0       0       0       0
       0       0       0       0       0       0       0       0
       0       0       0       0       0       0       0       0
       0       0       0       0       0       0       0       0
       0       0       0       0       0       0       0       0
       0       0       0       0       0       0       0       0
       0       0       0       0       0       0       0       0
       0       0       0       0       0       0       0       0
       0       0       0       0       0       0       0       0
       0       0       0       0       0       0       0       0
       0       0       0       0       0       0       0       0
       0       0       0       0       0       0       0       0
       0       0       0       0       0       0       0       0
       0       0       0       0       0       0       0       0
       0       0       0       0       0       0       0       0
       0       0       0       0       0       0       0       0
       0       0       0       0       0       0       0       0
       0       0       0       0       0       0       0       0
       0       0       0       0       0       0       0       0
       0       0       0       0       0       0       0       0
       0       0       0       0       0       0       0       0
       0       0       0       0       0       0       0       0
       0       0       0       0       0       0       0       0
       0       0       0       0       0       0       0       0
       0       0       0       0       0       0       0       0
       0       0       0       0       0       0       0       0
       0       0       0       0       0       0       0       0
       0       0       0       0       0       0       0       0
       0       0       0       0       0       0       0       0
       0       0       0       0       0       0       0       0
       0       0       0       0       0       0       0       0
       0       0       0       0       0       0       0       0
       0       0       0       0       0       0       0       0
       0       0       0       0       0       0       0       0
       0       0       0       0       0       0       0       0
       0       0       0       0       0       0       0       0
       0       0       0       0       0       0       0       0
       0       0       0       0       0       0       0       0
       0       0       0       0       0       0       0       0
       0       0       0       0       0       0       0       0
       0       0       0       0       0       0       0       0
       0       0       0       0       0       0       0       0
       0       0       0       0       0       0       0       0
       0       0       0       0       0       0       0       0
       0       0       0       0       0       0       0       0
       0       0       0       0       0       0       0       0
       0       0       0       0       0       0       0       0
       0       0       0       0       0       0       0       0
       0       0       0       0       0       0       0       0
       0       0       0       0       0       0       0       0
       0       0       0       0       0       0       0       0
       0       0       0       0       0       0       0       0
       0       0       0       0       0       0       0       0
       0       0       0       0       0       0       0       0
       0       0       0       0       0       0       0       0
       0       0       0       0       0       0       0       0
       0       0       0       0       0       0       0       0
       0       0       0       0       0       0       0       0
       0       0       0       0       0       0       0       0
       0       0       0       0       0       0       0       0
       0       0       0       0       0       0       0       0
       0       0       0       0       0       0       0       0
       0       0       0       0       0       0       0       0
       0       0       0       0       0       0       0       0
       0       0       0       0       0       0       0       0
       0       0       0       0       0       0       0       0
       0       0       0       0       0       0       0       0
       0       0       0       0       0       0       0       0
       0       0       0       0       0       0       0       0
       0       0       0       0       0       0       0       0
       0       0       0       0       0       0       0       0
       0       0       0       0       0       0       0       0
       0       0       0       0       0       0       0       0
       0       0       0       0       0       0       0       0
       0       0       0       0       0       0       0       0
       0       0       0       0       0       0       0       0
       0       0       0       0       0       0       0       0
       0       0       0       0       0       0       0       0
       0       0       0       0       0       0       0       0
       0       0       0       0       0       0       0       0
       0       0       0       0       0       0       0       0
       0       0       0       0       0       0       0       0
       0       0       0       0       0       0       0       0
       0       0       0       0       0       0       0       0
       0       0       0       0       0       0       0       0
       0       0       0       0       0       0       0       0
       0       0       0       0       0       0       0       0
       0       0       0       0       0       0       0       0
       0       0       0       0       0       0       0       0
       0       0       0       0       0       0       0       0
       0       0       0       0       0       0       0       0
       0       0       0       0       0       0       0       0
       0       0       0       0       0       0       0       0
       0       0       0       0       0       0       0       0
       0       0       0       0       0       0       0       0
       0       0       0       0       0       0       0       0
       0       0       0       0       0       0       0       0
       0       0       0       0       0       0       0       0
       0       0       0       0       0       0       0       0
       0       0       0       0       0       0       0       0
       0       0       0       0       0       0       0       0
       0       0       0       0       0       0       0       0
       0       0       0       0       0       0       0       0
       0       0       0       0       0       0       0       0
       0       0       0       0       0       0       0       0
       0       0       0       0       0       0       0       0
       0       0       0       0       0       0       0       0
       0       0       0       0       0       0       0       0
       0       0       0       0       0       0       0       0
       0       0       0       0       0       0       0       0
       0       0       0       0       0       0       0       0
       0       0       0       0       0       0       0       0
       0       0       0       0       0       0       0       0
       0       0       0       0       0       0       0       0
       0       0       0       0       0       0       0       0
       0       0       0       0       0       0       0       0
       0       0       0       0       0       0       0       0
       0       0       0       0       0       0       0       0
       0       0       0       0       0       0       0       0
       0       0       0       0       0       0       0       0
       0       0       0       0       0       0       0       0
       0       0       0       0       0       0       0       0
       0       0       0       0       0       0       0       0
       0       0       0       0       0       0       0       0
       0       0       0       0       0       0       0       0
       0       0       0       0       0       0       0       0
       0       0       0       0       0       0       0       0
       0       0       0       0       0       0       0       0
       0       0       0       0       0       0       0       0
       0       0       0       0       0       0       0       0
       0       0       0       0       0       0       0       0
       0       0       0       0       0       0       0       0
       0       0       0       0       0       0       0       0
       0       0       0       0       0       0       0       0
       0       0       0       0       0       0       0       0
       0       0       0       0       0       0       0       0
       0       0       0       0       0       0       0       0
       0       0       0       0       0       0       0       0
       0       0       0       0       0       0       0       0
       0       0       0       0       0       0       0       0
       0       0       0       0       0       0       0       0
       0       0       0       0       0       0       0       0
       0       0       0       0       0       0       0       0
       0       0       0       0       0       0       0       0
       0       0       0       0       0       0       0       0
       0       0       0       0       0       0       0       0
       0       0       0       0       0       0       0       0
       0       0       0       0       0       0       0       0
       0       0       0       0       0       0       0       0
       0       0       0       0       0       0       0       0
       0       0       0       0       0       0       0       0
       0       0       0       0       0       0       0       0
       0       0       0       0       0       0       0       0
       0       0       0       0       0       0       0       0
       0       0       0       0       0       0       0       0
       0       0       0       0       0       0       0       0
       0       0       0       0       0       0       0       0
       0       0       0       0       0       0       0       0
       0       0       0       0       0       0       0       0
       0       0       0       0       0       0       0       0
       0       0       0       0       0       0       0       0
       0       0       0       0       0       0       0       0
       0       0       0       0       0       0       0       0
       0       0       0       0       0       0       0       0
       0       0       0       0       0       0       0       0
       0       0       0       0       0       0       0       0
       0       0       0       0       0       0       0       0
       0       0       0       0       0       0       0       0
       0       0       0       0       0       0       0       0
       0       0       0       0       0       0       0       0
       0       0       0       0       0       0       0       0
       0       0       0       0       0       0       0       0
       0       0       0       0       0       0       0       0
       0       0       0       0       0       0       0       0
       0       0       0       0       0       0       0       0
       0       0       0       0       0       0       0       0
       0       0       0       0       0       0       0       0
       0       0       0       0       0       0       0       0
       0       0       0       0       0       0       0       0
       0       0       0       0       0       0       0       0
       0       0       0       0       0       0       0       0
       0       0       0       0       0       0       0       0
       0       0       0       0       0       0       0       0
       0       0       0       0       0       0       0       0
       0       0       0       0       0       0       0       0
       0       0       0       0       0       0       0       0
       0       0       0       0       0       0       0       0
       0       0       0       0       0       0       0       0
       0       0       0       0       0       0       0       0
       0       0       0       0       0       0       0       0
       0       0       0       0       0       0       0       0
       0       0       0       0       0       0       0       0
       0       0       0       0       0       0       0       0
       0       0       0       0       0       0       0       0
       0       0       0       0       0       0       0       0
       0       0       0       0       0       0       0       0
       0       0       0       0       0       0       0       0
       0       0       0       0       0       0       0       0
       0       0       0       0       0       0       0       0
       0       0       0       0       0       0       0       0
       0       0       0       0       0       0       0       0
       0       0       0       0       0       0       0       0
       0       0       0       0       0       0       0       0
       0       0       0       0       0       0       0       0
       0       0       0       0       0       0       0       0
       0       0       0       0       0       0       0       0
       0       0       0       0       0       0       0       0
       0       0       0       0       0       0       0       0
       0       0       0       0       0       0       0       0
       0       0       0       0       0       0       0       0
       0       0       0       0       0       0       0       0
       0       0       0       0       0       0       0       0
       0       0       0       0       0       0       0       0
       0       0       0       0       0       0       0       0
       0       0       0       0       0       0       0       0
       0       0       0       0       0       0       0       0
       0       0       0       0       0       0       0       0
       0       0       0       0       0       0       0       0
       0       0       0       0       0       0       0       0
       0       0       0       0       0       0       0       0
       0       0       0       0       0       0       0       0
       0       0       0       0       0       0       0       0
       0       0       0       0       0       0       0       0
       0       0       0       0       0       0       0       0
       0       0       0       0       0       0       0       0
       0       0       0       0       0       0       0       0
       0       0       0       0       0       0       0       0
       0       0       0       0       0       0       0       0
       0       0       0       0       0       0       0       0
       0       0       0       0       0       0       0       0
       0       0       0       0       0       0       0       0
       0       0       0       0       0       0       0       0
       0       0       0       0       0       0       0       0
       0       0       0       0       0       0       0       0
       0       0       0       0       0       0       0       0
       0       0       0       0       0       0       0       0
       0       0       0       0       0       0       0       0
       0       0       0       0       0       0       0       0
       0       0       0       0       0       0       0       0
       0       0       0       0       0       0       0       0
       0       0       0       0       0       0       0       0
       0       0       0       0       0       0       0       0
       0       0       0       0       0       0       0       0
       0       0       0       0       0       0       0       0
       0       0       0       0       0       0       0       0
       0       0       0       0       0       0       0       0
       0       0       0       0       0       0       0       0
       0       0       0       0       0       0       0       0
       0       0       0       0       0       0       0       0
       0       0       0       0       0       0       0       0
       0       0       0       0       0       0       0       0
       0       0       0       0       0       0       0       0
       0       0       0       0       0       0       0       0
       0       0       0       0       0       0       0       0
       0       0       0       0       0       0       0       0
       0       0       0       0       0       0       0       0
       0       0       0       0       0       0       0       0
       0       0       0       0       0       0       0       0
       0       0       0       0       0       0       0       0
       0       0       0       0       0       0       0       0
       0       0       0       0       0       0       0       0
       0       0       0       0       0       0       0       0
       0       0       0       0       0       0       0       0
       0       0       0       0       0       0       0       0
       0       0       0       0       0       0       0       0
       0       0       0       0       0       0       0       0
       0       0       0       0       0       0       0       0
       0       0       0       0       0       0       0       0
       0       0       0       0       0       0       0       0
       0       0       0       0       0       0       0       0
       0       0       0       0       0       0       0       0
       0       0       0       0       0       0       0       0
       0       0       0       0       0       0       0       0
       0       0       0       0       0       0       0       0
       0       0       0       0       0       0       0       0
       0       0       0       0       0       0       0       0
       0       0       0       0       0       0       0       0
       0       0       0       0       0       0       0       0
       0       0       0       0       0       0       0       0
       0       0       0       0       0       0       0       0
       0       0       0       0       0       0       0       0
       0       0       0       0       0       0       0       0
       0       0       0       0       0       0       0       0
       0       0       0       0       0       0       0       0
       0       0       0       0       0       0       0       0
       0       0       0       0       0       0       0       0
       0       0       0       0       0       0       0       0
       0       0       0       0       0       0       0       0
       0       0       0       0       0       0       0       0
       0       0       0       0       0       0       0       0
       0       0       0       0       0       0       0       0
       0       0       0       0       0       0       0       0
       0       0       0       0       0       0       0       0
       0       0       0       0       0       0       0       0
       0       0       0       0       0       0       0       0
       0       0       0       0       0       0       0       0
       0       0       0       0       0       0       0       0
       0       0       0       0       0       0       0       0
       0       0       0       0       0       0       0       0
       0       0       0       0       0       0       0       0
       0       0       0       0       0       0       0       0
       0       0       0       0       0       0       0       0
       0       0       0       0       0       0       0       0
       0       0       0       0       0       0       0       0
       0       0       0       0       0       0       0       0
       0       0       0       0       0       0       0       0
       0       0       0       0       0       0       0       0
       0       0       0       0       0       0       0       0
       0       0       0       0       0       0       0       0
       0       0       0       0       0       0       0       0
       0       0       0       0       0       0       0       0
       0       0       0       0       0       0       0       0
       0       0       0       0       0       0       0       0
       0       0       0       0       0       0       0       0
       0       0       0       0       0       0       0       0
       0       0       0       0       0       0       0       0
       0       0       0       0       0       0       0       0
       0       0       0       0       0       0       0       0
       0       0       0       0       0       0       0       0
       0       0       0       0       0       0       0       0
       0       0       0       0       0       0       0       0
       0       0       0       0       0       0       0       0
       0       0       0       0       0       0       0       0
       0       0       0       0       0       0       0       0
       0       0       0       0       0       0       0       0
       0       0       0       0       0       0       0       0
       0       0       0       0       0       0       0       0
       0       0       0       0       0       0       0       0
       0       0       0       0       0       0       0       0
       0       0       0       0       0       0       0       0
       0       0       0       0       0       0       0       0
       0       0       0       0       0       0       0       0
       0       0       0       0       0       0       0       0
       0       0       0       0       0       0       0       0
       0       0       0       0       0       0       0       0
       0       0       0       0       0       0       0       0
       0       0       0       0       0       0       0       0
       0       0       0       0       0       0       0       0
       0       0       0       0       0       0       0       0
       0       0       0       0       0       0       0       0
       0       0       0       0       0       0       0       0
       0       0       0       0       0       0       0       0
       0       0       0       0       0       0       0       0
       0       0       0       0       0       0       0       0
       0       0       0       0       0       0       0       0
       0       0       0       0       0       0       0       0
       0       0       0       0       0       0       0       0
       0       0       0       0       0       0       0       0
       0       0       0       0       0       0       0       0
       0       0       0       0       0       0       0       0
       0       0       0       0       0       0       0       0
       0       0       0       0       0       0       0       0
       0       0       0       0       0       0       0       0
       0       0       0       0       0       0       0       0
       0       0       0       0       0       0       0       0
       0       0       0       0       0       0       0       0
       0       0       0       0       0       0       0       0
       0       0       0       0       0       0       0       0
       0       0       0       0       0       0       0       0
       0       0       0       0       0       0       0       0
       0       0       0       0       0       0       0       0
       0       0       0       0       0       0       0       0
       0       0       0       0       0       0       0       0
       0       0       0       0       0       0       0       0
       0       0       0       0       0       0       0       0
       0       0       0       0       0       0       0       0
       0       0       0       0       0       0       0       0
       0       0       0       0       0       0       0       0
       0       0       0       0       0       0       0       0
       0       0       0       0       0       0       0       0
       0       0       0       0       0       0       0       0
       0       0       0       0       0       0       0       0
       0       0       0       0       0       0       0       0
       0       0       0       0       0       0       0       0
       0       0       0       0       0       0       0       0
       0       0       0       0       0       0       0       0
       0       0       0       0       0       0       0       0
       0       0       0       0       0       0       0       0
       0       0       0       0       0       0       0       0
       0       0       0       0       0       0       0       0
       0       0       0       0       0       0       0       0
       0       0       0       0       0       0       0       0
       0       0       0       0       0       0       0       0
       0       0       0       0       0       0       0       0
       0       0       0       0       0       0       0       0
       0       0       0       0       0       0       0       0
       0       0       0       0       0       0       0       0
       0       0       0       0       0       0       0       0
       0       0       0       0       0       0       0       0
       0       0       0       0       0       0       0       0
       0       0       0       0       0       0       0       0
       0       0       0       0       0       0       0       0
       0       0       0       0       0       0       0       0
       0       0       0       0       0       0       0       0
       0       0       0       0       0       0       0       0
       0       0       0       0       0       0       0       0
       0       0       0       0       0       0       0       0
       0       0       0       0       0       0       0       0
       0       0       0       0       0       0       0       0
       0       0       0       0       0       0       0       0
       0       0       0       0       0       0       0       0
       0       0       0       0       0       0       0       0
       0       0       0       0       0       0       0       0
       0       0       0       0       0       0       0       0
       0       0       0       0       0       0       0       0
       0       0       0       0       0       0       0       0
       0       0       0       0       0       0       0       0
       0       0       0       0       0       0       0       0
       0       0       0       0       0       0       0       0
       0       0       0       0       0       0       0       0
       0       0       0       0       0       0       0       0
       0       0       0       0       0       0       0       0
       0       0       0       0       0       0       0       0
       0       0       0       0       0       0       0       0
       0       0       0       0       0       0       0       0
       0       0       0       0       0       0       0       0
       0       0       0       0       0       0       0       0
       0       0       0       0       0       0       0       0
       0       0       0       0       0       0       0       0
       0       0       0       0       0       0       0       0
       0       0       0       0       0       0       0       0
       0       0       0       0       0       0       0       0
       0       0       0       0       0       0       0       0
       0       0       0       0       0       0       0       0
       0       0       0       0       0       0       0       0
       0       0       0       0       0       0       0       0
       0       0       0       0       0       0       0       0
       0       0       0       0       0       0       0       0
       0       0       0       0       0       0       0       0
       0       0       0       0       0       0       0       0
       0       0       0       0       0       0       0       0
       0       0       0       0       0       0       0       0
       0       0       0       0       0       0       0       0
       0       0       0       0       0       0       0       0
       0       0       0       0       0       0       0       0
       0       0       0       0       0       0       0       0
       0       0       0       0       0       0       0       0
       0       0       0       0       0       0       0       0
       0       0       0       0       0       0       0       0
       0       0       0       0       0       0       0       0
       0       0       0       0       0       0       0       0
       0       0       0       0       0       0       0       0
       0       0       0       0       0       0       0       0
       0       0       0       0       0       0       0       0
       0       0       0       0       0       0       0       0
       0       0       0       0       0       0       0       0
       0       0       0       0       0       0       0       0
       0       0       0       0       0       0       0       0
       0       0       0       0       0       0       0       0
       0       0       0       0       0       0       0       0
       0       0       0       0       0       0       0       0
       0       0       0       0       0       0       0       0
       0       0       0       0       0       0       0       0
       0       0       0       0       0       0       0       0
       0       0       0       0       0       0       0       0
       0       0       0       0       0       0       0       0
       0       0       0       0       0       0       0       0
       0       0       0       0       0       0       0       0
       0       0       0       0       0       0       0       0
       0       0       0       0       0       0       0       0
       0       0       0       0       0       0       0       0
       0       0       0       0       0       0       0       0
       0       0       0       0       0       0       0       0
       0       0       0       0       0       0       0       0
       0       0       0       0       0       0       0       0
       0       0       0       0       0       0       0       0
       0       0       0       0       0       0       0       0
       0       0       0       0       0       0       0       0
       0       0       0       0       0       0       0       0
       0       0       0       0       0       0       0       0
       0       0       0       0       0       0       0       0
       0       0       0       0       0       0       0       0
       0       0       0       0       0       0       0       0
       0       0       0       0       0       0       0       0
       0       0       0       0       0       0       0       0
       0       0       0       0       0       0       0       0
       0       0       0       0       0       0       0       0
       0       0       0       0       0       0       0       0
       0       0       0       0       0       0       0       0
       0       0       0       0       0       0       0       0
       0       0       0       0       0       0       0       0
       0       0       0       0       0       0       0       0
       0       0       0       0       0       0       0       0
       0       0       0       0       0       0       0       0
       0       0       0       0       0       0       0       0
       0       0       0       0       0       0       0       0
       0       0       0       0       0       0       0       0
       0       0       0       0       0       0       0       0
       0       0       0       0       0       0       0       0
       0       0       0       0       0       0       0       0
       0       0       0       0       0       0       0       0
       0       0       0       0       0       0       0       0
       0       0       0       0       0       0       0       0
       0       0       0       0       0       0       0       0
       0       0       0       0       0       0       0       0
       0       0       0       0       0       0       0       0
       0       0       0       0       0       0       0       0
       0       0       0       0       0       0       0       0
       0       0       0       0       0       0       0       0
       0       0       0       0       0       0       0       0
       0       0       0       0       0       0       0       0
       0       0       0       0       0       0       0       0
       0       0       0       0       0       0       0       0
       0       0       0       0       0       0       0       0
       0       0       0       0       0       0       0       0
       0       0       0       0       0       0       0       0
       0       0       0       0       0       0       0       0
       0       0       0       0       0       0       0       0
       0       0       0       0       0       0       0       0
       0       0       0       0       0       0       0       0
       0       0       0       0       0       0       0       0
       0       0       0       0       0       0       0       0
       0       0       0       0       0       0       0       0
       0       0       0       0       0       0       0       0
       0       0       0       0       0       0       0       0
       0       0       0       0       0       0       0       0
       0       0       0       0       0       0       0       0
       0       0       0       0       0       0       0       0
       0       0       0       0       0       0       0       0
       0       0       0       0       0       0       0       0
       0       0       0       0       0       0       0       0
       0       0       0       0       0       0       0       0
       0       0       0       0       0       0       0       0
       0       0       0       0       0       0       0       0
       0       0       0       0       0       0       0       0
       0       0       0       0       0       0       0       0
       0       0       0       0       0       0       0       0
       0       0       0       0       0       0       0       0
       0       0       0       0       0       0       0       0
       0       0       0       0       0       0       0       0
       0       0       0       0       0       0       0       0
       0       0       0       0       0       0       0       0
       0       0       0       0       0       0       0       0
       0       0       0       0       0       0       0       0
       0       0       0       0       0       0       0       0
       0       0       0       0       0       0       0       0
       0       0       0       0       0       0       0       0
       0       0       0       0       0       0       0       0
       0       0       0       0       0       0       0       0
       0       0       0       0       0       0       0       0
       0       0       0       0       0       0       0       0
       0       0       0       0       0       0       0       0
       0       0       0       0       0       0       0       0
       0       0       0       0       0       0       0       0
       0       0       0       0       0       0       0       0
       0       0       0       0       0       0       0       0
       0       0       0       0       0       0       0       0
       0       0       0       0       0       0       0       0
       0       0       0       0       0       0       0       0
       0       0       0       0       0       0       0       0
       0       0       0       0       0       0       0       0
       0       0       0       0       0       0       0       0
       0       0       0       0       0       0       0       0
       0       0       0       0       0       0       0       0
       0       0       0       0       0       0       0       0
       0       0       0       0       0       0       0       0
       0       0       0       0       0       0       0       0
       0       0       0       0       0       0       0       0
       0       0       0       0       0       0       0       0
       0       0       0       0       0       0       0       0
       0       0       0       0       0       0       0       0
       0       0       0       0       0       0       0       0
       0       0       0       0       0       0       0       0
       0       0       0       0       0       0       0       0
       0       0       0       0       0       0       0       0
       0       0       0       0       0       0       0       0
       0       0       0       0       0       0       0       0
       0       0       0       0       0       0       0       0
       0       0       0       0       0       0       0       0
       0       0       0       0       0       0       0       0
       0       0       0       0       0       0       0       0
       0       0       0       0       0       0       0       0
       0       0       0       0       0       0       0       0
       0       0       0       0       0       0       0       0
       0       0       0       0       0       0       0       0
       0       0       0       0       0       0       0       0
       0       0       0       0       0       0       0       0
       0       0       0       0       0       0       0       0
       0       0       0       0       0       0       0       0
       0       0       0       0       0       0       0       0
       0       0       0       0       0       0       0       0
       0       0       0       0       0       0       0       0
       0       0       0       0       0       0       0       0
       0       0       0       0       0       0       0       0
       0       0       0       0       0       0       0       0
       0       0       0       0       0       0       0       0
       0       0       0       0       0       0       0       0
       0       0       0       0       0       0       0       0
       0       0       0       0       0       0       0       0
       0       0       0       0       0       0       0       0
       0       0       0       0       0       0       0       0
       0       0       0       0       0       0       0       0
       0       0       0       0       0       0       0       0
       0       0       0       0       0       0       0       0
       0       0       0       0       0       0       0       0
       0       0       0       0       0       0       0       0
       0       0       0       0       0       0       0       0
       0       0       0       0       0       0       0       0
       0       0       0       0       0       0       0       0
       0       0       0       0       0       0       0       0
       0       0       0       0       0       0       0       0
       0       0       0       0       0       0       0       0
       0       0       0       0       0       0       0       0
       0       0       0       0       0       0       0       0
       0       0       0       0       0       0       0       0
       0       0       0       0       0       0       0       0
       0       0       0       0       0       0       0       0
       0       0       0       0       0       0       0       0
       0       0       0       0       0       0       0       0
       0       0       0       0       0       0       0       0
       0       0       0       0       0       0       0       0
       0       0       0       0       0       0       0       0
       0       0       0       0       0       0       0       0
       0       0       0       0       0       0       0       0
       0       0       0       0       0       0       0       0
       0       0       0       0       0       0       0       0
       0       0       0       0       0       0       0       0
       0       0       0       0       0       0       0       0
       0       0       0       0       0       0       0       0
       0       0       0       0       0       0       0       0
       0       0       0       0       0       0       0       0
       0       0       0       0       0       0       0       0
       0       0       0       0       0       0       0       0
       0       0       0       0       0       0       0       0
       0       0       0       0       0       0       0       0
       0       0       0       0       0       0       0       0
       0       0       0       0       0       0       0       0
       0       0       0       0       0       0       0       0
       0       0       0       0       0       0       0       0
       0       0       0       0       0       0       0       0
       0       0       0       0       0       0       0       0
       0       0       0       0       0       0       0       0
       0       0       0       0       0       0       0       0
       0       0       0       0       0       0       0       0
       0       0       0       0       0       0       0       0
       0       0       0       0       0       0       0       0
       0       0       0       0       0       0       0       0
       0       0       0       0       0       0       0       0
       0       0       0       0       0       0       0       0
       0       0       0       0       0       0       0       0
       0       0       0       0       0       0       0       0
       0       0       0       0       0       0       0       0
       0       0       0       0       0       0       0       0
       0       0       0       0       0       0       0       0
       0       0       0       0       0       0       0       0
       0       0       0       0       0       0       0       0
       0       0       0       0       0       0       0       0
       0       0       0       0       0       0       0       0
       0       0       0       0       0       0       0       0
       0       0       0       0       0       0       0       0
       0       0       0       0       0       0       0       0
       0       0       0       0       0       0       0       0
       0       0       0       0       0       0       0       0
       0       0       0       0       0       0       0       0
       0       0       0       0       0       0       0       0
       0       0       0       0       0       0       0       0
       0       0       0       0       0       0       0       0
       0       0       0       0       0       0       0       0
       0       0       0       0       0       0       0       0
       0       0       0       0       0       0       0       0
       0       0       0       0       0       0       0       0
       0       0       0       0       0       0       0       0
       0       0       0       0       0       0       0       0
       0       0       0       0       0       0       0       0
       0       0       0       0       0       0       0       0
       0       0       0       0       0       0       0       0
       0       0       0       0       0       0       0       0
       0       0       0       0       0       0       0       0
       0       0       0       0       0       0       0       0
       0       0       0       0       0       0       0       0
       0       0       0       0       0       0       0       0
       0       0       0       0       0       0       0       0
       0       0       0       0       0       0       0       0
       0       0       0       0       0       0       0       0
       0       0       0       0       0       0       0       0
       0       0       0       0       0       0       0       0
       0       0       0       0       0       0       0       0
       0       0       0       0       0       0       0       0
       0       0       0       0       0       0       0       0
       0       0       0       0       0       0       0       0
       0       0       0       0       0       0       0       0
       0       0       0       0       0       0       0       0
       0       0       0       0       0       0       0       0
       0       0       0       0       0       0       0       0
       0       0       0       0       0       0       0       0
       0       0       0       0       0       0       0       0
       0       0       0       0       0       0       0       0
       0       0       0       0       0       0       0       0
       0       0       0       0       0       0       0       0
       0       0       0       0       0       0       0       0
       0       0       0       0       0       0       0       0
       0       0       0       0       0       0       0       0
       0       0       0       0       0       0       0       0
       0       0       0       0       0       0       0       0
       0       0       0       0       0       0       0       0
       0       0       0       0       0       0       0       0
       0       0       0       0       0       0       0       0
       0       0       0       0       0       0       0       0
       0       0       0       0       0       0       0       0
       0       0       0       0       0       0       0       0
       0       0       0       0       0       0       0       0
       0       0       0       0       0       0       0       0
       0       0       0       0       0       0       0       0
       0       0       0       0       0       0       0       0
       0       0       0       0       0       0       0       0
       0       0       0       0       0       0       0       0
       0       0       0       0       0       0       0       0
       0       0       0       0       0       0       0       0
       0       0       0       0       0       0       0       0
       0       0       0       0       0       0       0       0
       0       0       0       0       0       0       0       0
       0       0       0       0       0       0       0       0
       0       0       0       0       0       0       0       0
       0       0       0       0       0       0       0       0
       0       0       0       0       0       0       0       0
       0       0       0       0       0       0       0       0
       0       0       0       0       0       0       0       0
       0       0       0       0       0       0       0       0
       0       0       0       0       0       0       0       0
       0       0       0       0       0       0       0       0
       0       0       0       0       0       0       0       0
       0       0       0       0       0       0       0       0
       0       0       0       0       0       0       0       0
       0       0       0       0       0       0       0       0
       0       0       0       0       0       0       0       0
       0       0       0       0       0       0       0       0
       0       0       0       0       0       0       0       0
       0       0       0       0       0       0       0       0
       0       0       0       0       0       0       0       0
       0       0       0       0       0       0       0       0
       0       0       0       0       0       0       0       0
       0       0       0       0       0       0       0       0
       0       0       0       0       0       0       0       0
       0       0       0       0       0       0       0       0
       0       0       0       0       0       0       0       0
       0       0       0       0       0       0       0       0
       0       0       0       0       0       0       0       0
       0       0       0       0       0       0       0       0
       0       0       0       0       0       0       0       0
       0       0       0       0       0       0       0       0
       0       0       0       0       0       0       0       0
       0       0       0       0       0       0       0       0
       0       0       0       0       0       0       0       0
       0       0       0       0       0       0       0       0
       0       0       0       0       0       0       0       0
       0       0       0       0       0       0       0       0
       0       0       0       0       0       0       0       0
       0       0       0       0       0       0       0       0
       0       0       0       0       0       0       0       0
       0       0       0       0       0       0       0       0
       0       0       0       0       0       0       0       0
       0       0       0       0       0       0       0       0
       0       0       0       0       0       0       0       0
       0       0       0       0       0       0       0       0
       0       0       0       0       0       0       0       0
       0       0       0       0       0       0       0       0
       0       0       0       0       0       0       0       0
       0       0       0       0       0       0       0       0
       0       0       0       0       0       0       0       0
       0       0       0       0       0       0       0       0
       0       0       0       0       0       0       0       0
       0       0       0       0       0       0       0       0
       0       0       0       0       0       0       0       0
       0       0       0       0       0       0       0       0
       0       0       0       0       0       0       0       0
       0       0       0       0       0       0       0       0
       0       0       0       0       0       0       0       0
       0       0       0       0       0       0       0       0
       0       0       0       0       0       0       0       0
       0       0       0       0       0       0       0       0
       0       0       0       0       0       0       0       0
       0       0       0       0       0       0       0       0
       0       0       0       0       0       0       0       0
       0       0       0       0       0       0       0       0
       0       0       0       0       0       0       0       0
       0       0       0       0       0       0       0       0
       0       0       0       0       0       0       0       0
       0       0       0       0       0       0       0       0
       0       0       0       0       0       0       0       0
       0       0       0       0       0       0       0       0
       0       0       0       0       0       0       0       0
       0       0       0       0       0       0       0       0
       0       0       0       0       0       0       0       0
       0       0       0       0       0       0       0       0
       0       0       0       0       0       0       0       0
       0       0       0       0       0       0       0       0
       0       0       0       0       0       0       0       0
       0       0       0       0       0       0       0       0
       0       0       0       0       0       0       0       0
       0       0       0       0       0       0       0       0
       0       0       0       0       0       0       0       0
       0       0       0       0       0       0       0       0
       0       0       0       0       0       0       0       0
       0       0       0       0       0       0       0       0
       0       0       0       0       0       0       0       0
       0       0       0       0       0       0       0       0
       0       0       0       0       0       0       0       0
       0       0       0       0       0       0       0       0
       0       0       0       0       0       0       0       0
       0       0       0       0       0       0       0       0
       0       0       0       0       0       0       0       0
       0       0       0       0       0       0       0       0
       0       0       0       0       0       0       0       0
       0       0       0       0       0       0       0       0
       0       0       0       0       0       0       0       0
       0       0       0       0       0       0       0       0
       0       0       0       0       0       0       0       0
       0       0       0       0       0       0       0       0
       0       0       0       0       0       0       0       0
       0       0       0       0       0       0       0       0
       0       0       0       0       0       0       0       0
       0       0       0       0       0       0       0       0
       0       0       0       0       0       0       0       0
       0       0       0       0       0       0       0       0
       0       0       0       0       0       0       0       0
       0       0       0       0       0       0       0       0
       0       0       0       0       0       0       0       0
       0       0       0       0       0       0       0       0
       0       0       0       0       0       0       0       0
       0       0       0       0       0       0       0       0
       0       0       0       0       0       0       0       0
       0       0       0       0       0       0       0       0
       0       0       0       0       0       0       0       0
       0       0       0       0       0       0       0       0
       0       0       0       0       0       0       0       0
       0       0       0       0       0       0       0       0
       0       0       0       0       0       0       0       0
       0       0       0       0       0       0       0       0
       0       0       0       0       0       0       0       0
       0       0       0       0       0       0       0       0
       0       0       0       0       0       0       0       0
       0       0       0       0       0       0       0       0
       0       0       0       0       0       0       0       0
       0       0       0       0       0       0       0       0
       0       0       0       0       0       0       0       0
       0       0       0       0       0       0       0       0
       0       0       0       0       0       0       0       0
       0       0       0       0       0       0       0       0
       0       0       0       0       0       0       0       0
       0       0       0       0       0       0       0       0
       0       0       0       0       0       0       0       0
       0       0       0       0       0       0       0       0
       0       0       0       0       0       0       0       0
       0       0       0       0       0       0       0       0
       0       0       0       0       0       0       0       0
       0       0       0       0       0       0       0       0
       0       0       0       0       0       0       0       0
       0       0       0       0       0       0       0       0
       0       0       0       0       0       0       0       0
       0       0       0       0       0       0       0       0
       0       0       0       0       0       0       0       0
       0       0       0       0       0       0       0       0
       0       0       0       0       0       0       0       0
       0       0       0       0       0       0       0       0
       0       0       0       0       0       0       0       0
       0       0       0       0       0       0       0       0
       0       0       0       0       0       0       0       0
       0       0       0       0       0       0       0       0
       0       0       0       0       0       0       0       0
       0       0       0       0       0       0       0       0
       0       0       0       0       0       0       0       0
       0       0       0       0       0       0       0       0
       0       0       0       0       0       0       0       0
       0       0       0       0       0       0       0       0
       0       0       0       0       0       0       0       0
       0       0       0       0       0       0       0       0
       0       0       0       0       0       0       0       0
       0       0       0       0       0       0       0       0
       0       0       0       0       0       0       0       0
       0       0       0       0       0       0       0       0
       0       0       0       0       0       0       0       0
       0       0       0       0       0       0       0       0
       0       0       0       0       0       0       0       0
       0       0       0       0       0       0       0       0
       0       0       0       0       0       0       0       0
       0       0       0       0       0       0       0       0
       0       0       0       0       0       0       0       0
       0       0       0       0       0       0       0       0
       0       0       0       0       0       0       0       0
       0       0       0       0       0       0       0       0
       0       0       0       0       0       0       0       0
       0       0       0       0       0       0       0       0
       0       0       0       0       0       0       0       0
       0       0       0       0       0       0       0       0
       0       0       0       0       0       0       0       0
       0       0       0       0       0       0       0       0
       0       0       0       0       0       0       0       0
       0       0       0       0       0       0       0       0
       0       0       0       0       0       0       0       0
       0       0       0       0       0       0       0       0
       0       0       0       0       0       0       0       0
       0       0       0       0       0       0       0       0
       0       0       0       0       0       0       0       0
       0       0       0       0       0       0       0       0
       0       0       0       0       0       0       0       0
       0       0       0       0       0       0       0       0
       0       0       0       0       0       0       0       0
       0       0       0       0       0       0       0       0
       0       0       0       0       0       0       0       0
       0       0       0       0       0       0       0       0
       0       0       0       0       0       0       0       0
       0       0       0       0       0       0       0       0
       0       0       0       0       0       0       0       0
       0       0       0       0       0       0       0       0
       0       0       0       0       0       0       0       0
       0       0       0       0       0       0       0       0
       0       0       0       0       0       0       0       0
       0       0       0       0       0       0       0       0
       0       0       0       0       0       0       0       0
       0       0       0       0       0       0       0       0
       0       0       0       0       0       0       0       0
       0       0       0       0       0       0       0       0
       0       0       0       0       0       0       0       0
       0       0       0       0       0       0       0       0
       0       0       0       0       0       0       0       0
       0       0       0       0       0       0       0       0
       0       0       0       0       0       0       0       0
       0       0       0       0       0       0       0       0
       0       0       0       0       0       0       0       0
       0       0       0       0       0       0       0       0
       0       0       0       0       0       0       0       0
       0       0       0       0       0       0       0       0
       0       0       0       0       0       0       0       0
       0       0       0       0       0       0       0       0
       0       0       0       0       0       0       0       0
       0       0       0       0       0       0       0       0
       0       0       0       0       0       0       0       0
       0       0       0       0       0       0       0       0
       0       0       0       0       0       0       0       0
       0       0       0       0       0       0       0       0
       0       0       0       0       0       0       0       0
       0       0       0       0       0       0       0       0
       0       0       0       0       0       0       0       0
       0       0       0       0       0       0       0       0
       0       0       0       0       0       0       0       0
       0       0       0       0       0       0       0       0
       0       0       0       0       0       0       0       0
       0       0       0       0       0       0       0       0
       0       0       0       0       0       0       0       0
       0       0       0       0       0       0       0       0
       0       0       0       0       0       0       0       0
       0       0       0       0       0       0       0       0
       0       0       0       0       0       0       0       0
       0       0       0       0       0       0       0       0
       0       0       0       0       0       0       0       0
       0       0       0       0       0       0       0       0
       0       0       0       0       0       0       0       0
       0       0       0       0       0       0       0       0
       0       0       0       0       0       0       0       0
       0       0       0       0       0       0       0       0
       0       0       0       0       0       0       0       0
       0       0       0       0       0       0       0       0
       0       0       0       0       0       0       0       0
       0       0       0       0       0       0       0       0
       0       0       0       0       0       0       0       0
       0       0       0       0       0       0       0       0
       0       0       0       0       0       0       0       0
       0       0       0       0       0       0       0       0
       0       0       0       0       0       0       0       0
       0       0       0       0       0       0       0       0
       0       0       0       0       0       0       0       0
       0       0       0       0       0       0       0       0
       0       0       0       0       0       0       0       0
       0       0       0       0       0       0       0       0
       0       0       0       0       0       0       0       0
       0       0       0       0       0       0       0       0
       0       0       0       0       0       0       0       0
       0       0       0       0       0       0       0       0
       0       0       0       0       0       0       0       0
       0       0       0       0       0       0       0       0
       0       0       0       0       0       0       0       0
       0       0       0       0       0       0       0       0
       0       0       0       0       0       0       0       0
       0       0       0       0       0       0       0       0
       0       0       0       0       0       0       0       0
       0       0       0       0       0       0       0       0
       0       0       0       0       0       0       0       0
       0       0       0       0       0       0       0       0
       0       0       0       0       0       0       0       0
       0       0       0       0       0       0       0       0
       0       0       0       0       0       0       0       0
       0       0       0       0       0       0       0       0
       0       0       0       0       0       0       0       0
       0       0       0       0       0       0       0       0
       0       0       0       0       0       0       0       0
       0       0       0       0       0       0       0       0
       0       0       0       0       0       0       0       0
       0       0       0       0       0       0       0       0
       0       0       0       0       0       0       0       0
       0       0       0       0       0       0       0       0
       0       0       0       0       0       0       0       0
       0       0       0       0       0       0       0       0
       0       0       0       0       0       0       0       0
       0       0       0       0       0       0       0       0
       0       0       0       0       0       0       0       0
       0       0       0       0       0       0       0       0
       0       0       0       0       0       0       0       0
       0       0       0       0       0       0       0       0
       0       0       0       0       0       0       0       0
       0       0       0       0       0       0       0       0
       0       0       0       0       0       0       0       0
       0       0       0       0       0       0       0       0
       0       0       0       0       0       0       0       0
       0       0       0       0       0       0       0       0
       0       0       0       0       0       0       0       0
       0       0       0       0       0       0       0       0
       0       0       0       0       0       0       0       0
       0       0       0       0       0       0       0       0
       0       0       0       0       0       0       0       0
       0       0       0       0       0       0       0       0
       0       0       0       0       0       0       0       0
       0       0       0       0       0       0       0       0
       0       0       0       0       0       0       0       0
       0       0       0       0       0       0       0       0
       0       0       0       0       0       0       0       0
       0       0       0       0       0       0       0       0
       0       0       0       0       0       0       0       0
       0       0       0       0       0       0       0       0
       0       0       0       0       0       0       0       0
       0       0       0       0       0       0       0       0
       0       0       0       0       0       0       0       0
       0       0       0       0       0       0       0       0
       0       0       0       0       0       0       0       0
       0       0       0       0       0       0       0       0
       0       0       0       0       0       0       0       0
       0       0       0       0       0       0       0       0
       0       0       0       0       0       0       0       0
       0       0       0       0       0       0       0       0
       0       0       0       0       0       0       0       0
       0       0       0       0       0       0       0       0
       0       0       0       0       0       0       0       0
       0       0       0       0       0       0       0       0
       0       0       0       0       0       0       0       0
       0       0       0       0       0       0       0       0
       0       0       0       0       0       0       0       0
       0       0       0       0       0       0       0       0
       0       0       0       0       0       0       0       0
       0       0       0       0       0       0       0       0
       0       0       0       0       0       0       0       0
       0       0       0       0       0       0       0       0
       0       0       0       0       0       0       0       0
       0       0       0       0       0       0       0       0
       0       0       0       0       0       0       0       0
       0       0       0       0       0       0       0       0
       0       0       0       0       0       0       0       0
       0       0       0       0       0       0       0       0
       0       0       0       0       0       0       0       0
       0       0       0       0       0       0       0       0
       0       0       0       0       0       0       0       0
       0       0       0       0       0       0       0       0
       0       0       0       0       0       0       0       0
       0       0       0       0       0       0       0       0
       0       0       0       0       0       0       0       0
       0       0       0       0       0       0       0       0
       0       0       0       0       0       0       0       0
       0       0       0       0       0       0       0       0
       0       0       0       0       0       0       0       0
       0       0       0       0       0       0       0       0
       0       0       0       0       0       0       0       0
       0       0       0       0       0       0       0       0
       0       0       0       0       0       0       0       0
       0       0       0       0       0       0       0       0
       0       0       0       0       0       0       0       0
       0       0       0       0       0       0       0       0
       0       0       0       0       0       0       0       0
       0       0       0       0       0       0       0       0
       0       0       0       0       0       0       0       0
       0       0       0       0       0       0       0       0
       0       0       0       0       0       0       0       0
       0       0       0       0       0       0       0       0
       0       0       0       0       0       0       0       0
       0       0       0       0       0       0       0       0
       0       0       0       0       0       0       0       0
       0       0       0       0       0       0       0       0
       0       0       0       0       0       0       0       0
       0       0       0       0       0       0       0       0
       0       0       0       0       0       0       0       0
       0       0       0       0       0       0       0       0
       0       0       0       0       0       0       0       0
       0       0       0       0       0       0       0       0
       0       0       0       0       0       0       0       0
       0       0       0       0       0       0       0       0
       0       0       0       0       0       0       0       0
       0       0       0       0       0       0       0       0
       0       0       0       0       0       0       0       0
       0       0       0       0       0       0       0       0
       0       0       0       0       0       0       0       0
       0       0       0       0       0       0       0       0
       0       0       0       0       0       0       0       0
       0       0       0       0       0       0       0       0
       0       0       0       0       0       0       0       0
       0       0       0       0       0       0       0       0
       0       0       0       0       0       0       0       0
       0       0       0       0       0       0       0       0
       0       0       0       0       0       0       0       0
       0       0       0       0       0       0       0       0
       0       0       0       0       0       0       0       0
       0       0       0       0       0       0       0       0
       0       0       0       0       0       0       0       0
       0       0       0       0       0       0       0       0
       0       0       0       0       0       0       0       0
       0       0       0       0       0       0       0       0
       0       0       0       0       0       0       0       0
       0       0       0       0       0       0       0       0
       0       0       0       0       0       0       0       0
       0       0       0       0       0       0       0       0
       0       0       0       0       0       0       0       0
       0       0       0       0       0       0       0       0
       0       0       0       0       0       0       0       0
       0       0       0       0       0       0       0       0
       0       0       0       0       0       0       0       0
       0       0       0       0       0       0       0       0
       0       0       0       0       0       0       0       0
       0       0       0       0       0       0       0       0
       0       0       0       0       0       0       0       0
       0       0       0       0       0       0       0       0
       0       0       0       0       0       0       0       0
       0       0       0       0       0       0       0       0
       0       0       0       0       0       0       0       0
       0       0       0       0       0       0       0       0
       0       0       0       0       0       0       0       0
       0       0       0       0       0       0       0       0
       0       0       0       0       0       0       0       0
       0       0       0       0       0       0       0       0
       0       0       0       0       0       0       0       0
       0       0       0       0       0       0       0       0
       0       0       0       0       0       0       0       0
       0       0       0       0       0       0       0       0
       0       0       0       0       0       0       0       0
       0       0       0       0       0       0       0       0
       0       0       0       0       0       0       0       0
       0       0       0       0       0       0       0       0
       0       0       0       0       0       0       0       0
       0       0       0       0       0       0       0       0
       0       0       0       0       0       0       0       0
       0       0       0       0       0       0       0       0
       0       0       0       0       0       0       0       0
       0       0       0       0       0       0       0       0
       0       0       0       0       0       0       0       0
       0       0       0       0       0       0       0       0
       0       0       0       0       0       0       0       0
       0       0       0       0       0       0       0       0
       0       0       0       0       0       0       0       0
       0       0       0       0       0       0       0       0
       0       0       0       0       0       0       0       0
       0       0       0       0       0       0       0       0
       0       0       0       0       0       0       0       0
       0       0       0       0       0       0       0       0
       0       0       0       0       0       0       0       0
       0       0       0       0       0       0       0       0
       0       0       0       0       0       0       0       0
       0       0       0       0       0       0       0       0
       0       0       0       0       0       0       0       0
       0       0       0       0       0       0       0       0
       0       0       0       0       0       0       0       0
       0       0       0       0       0       0       0       0
       0       0       0       0       0       0       0       0
       0       0       0       0       0       0       0       0
       0       0       0       0       0       0       0       0
       0       0       0       0       0       0       0       0
       0       0       0       0       0       0       0       0
       0       0       0       0       0       0       0       0
       0       0       0       0       0       0       0       0
       0       0       0       0       0       0       0       0
       0       0       0       0       0       0       0       0
       0       0       0       0       0       0       0       0
       0       0       0       0       0       0       0       0
       0       0       0       0       0       0       0       0
       0       0       0       0       0       0       0       0
       0       0       0       0       0       0       0       0
       0       0       0       0       0       0       0       0
       0       0       0       0       0       0       0       0
       0       0       0       0       0       0       0       0
       0       0       0       0       0       0       0       0
       0       0       0       0       0       0       0       0
       0       0       0       0       0       0       0       0
       0       0       0       0       0       0       0       0
       0       0       0       0       0       0       0       0
       0       0       0       0       0       0       0       0
       0       0       0       0       0       0       0       0
       0       0       0       0       0       0       0       0
       0       0       0       0       0       0       0       0
       0       0       0       0       0       0       0       0
       0       0       0       0       0       0       0       0
       0       0       0       0       0       0       0       0
       0       0       0       0       0       0       0       0
       0       0       0       0       0       0       0       0
       0       0       0       0       0       0       0       0
       0       0       0       0       0       0       0       0
       0       0       0       0       0       0       0       0
       0       0       0       0       0       0       0       0
       0       0       0       0       0       0       0       0
       0       0       0       0       0       0       0       0
       0       0       0       0       0       0       0       0
       0       0       0       0       0       0       0       0
       0       0       0       0       0       0       0       0
       0       0       0       0       0       0       0       0
       0       0       0       0       0       0       0       0
       0       0       0       0       0       0       0       0
       0       0       0       0       0       0       0       0
       0       0       0       0       0       0       0       0
       0       0       0       0       0       0       0       0
       0       0       0       0       0       0       0       0
       0       0       0       0       0       0       0       0
       0       0       0       0       0       0       0       0
       0       0       0       0       0       0       0       0
       0       0       0       0       0       0       0       0
       0       0       0       0       0       0       0       0
       0       0       0       0       0       0       0       0
       0       0       0       0       0       0       0       0
       0       0       0       0       0       0       0       0
       0       0       0       0       0       0       0       0
       0       0       0       0       0       0       0       0
       0       0       0       0       0       0       0       0
       0       0       0       0       0       0       0       0
       0       0       0       0       0       0       0       0
       0       0       0       0       0       0       0       0
       0       0       0       0       0       0       0       0
       0       0       0       0       0       0       0       0
       0       0       0       0       0       0       0       0
       0       0       0       0       0       0       0       0
       0       0       0       0       0       0       0       0
       0       0       0       0       0       0       0       0
       0       0       0       0       0       0       0       0
       0       0       0       0       0       0       0       0
       0       0       0       0       0       0       0       0
       0       0       0       0       0       0       0       0
       0       0       0       0       0       0       0       0
       0       0       0       0       0       0       0       0
       0       0       0       0       0       0       0       0
       0       0       0       0       0       0       0       0
       0       0       0       0       0       0       0       0
       0       0       0       0       0       0       0       0
       0       0       0       0       0       0       0       0
       0       0       0       0       0       0       0       0
       0       0       0       0       0       0       0       0
       0       0       0       0       0       0       0       0
       0       0       0       0       0       0       0       0
       0       0       0       0       0       0       0       0
       0       0       0       0       0       0       0       0
       0       0       0       0       0       0       0       0
       0       0       0       0       0       0       0       0
       0       0       0       0       0       0       0       0
       0       0       0       0       0       0       0       0
       0       0       0       0       0       0       0       0
       0       0       0       0       0       0       0       0
       0       0       0       0       0       0       0       0
       0       0       0       0       0       0       0       0
       0       0       0       0       0       0       0       0
       0       0       0       0       0       0       0       0
       0       0       0       0       0       0       0       0
       0       0       0       0       0       0       0       0
       0       0       0       0       0       0       0       0
       0       0       0       0       0       0       0       0
       0       0       0       0       0       0       0       0
       0       0       0       0       0       0       0       0
       0       0       0       0       0       0       0       0
       0       0       0       0       0       0       0       0
       0       0       0       0       0       0       0       0
       0       0       0       0       0       0       0       0
       0       0       0       0       0       0       0       0
       0       0       0       0       0       0       0       0
       0       0       0       0       0       0       0       0
       0       0       0       0       0       0       0       0
       0       0       0       0       0       0       0       0
       0       0       0       0       0       0       0       0
       0       0       0       0       0       0       0       0
       0       0       0       0       0       0       0       0
       0       0       0       0       0       0       0       0
       0       0       0       0       0       0       0       0
       0       0       0       0       0       0       0       0
       0       0       0       0       0       0       0       0
       0       0       0       0       0       0       0       0
       0       0       0       0       0       0       0       0
       0       0       0       0       0       0       0       0
       0       0       0       0       0       0       0       0
       0       0       0       0       0       0       0       0
       0       0       0       0       0       0       0       0
       0       0       0       0       0       0       0       0
       0       0       0       0       0       0       0       0
       0       0       0       0       0       0       0       0
       0       0       0       0       0       0       0       0
       0       0       0       0       0       0       0       0
       0       0       0       0       0       0       0       0
       0       0       0       0       0       0       0       0
       0       0       0       0       0       0       0       0
       0       0       0       0       0       0       0       0
       0       0       0       0       0       0       0       0
       0       0       0       0       0       0       0       0
       0       0       0       0       0       0       0       0
       0       0       0       0       0       0       0       0
       0       0       0       0       0       0       0       0
       0       0       0       0       0       0       0       0
       0       0       0       0       0       0       0       0
       0       0       0       0       0       0       0       0
       0       0       0       0       0       0       0       0
       0       0       0       0       0       0       0       0
       0       0       0       0       0       0       0       0
       0       0       0       0       0       0       0       0
       0       0       0       0       0       0       0       0
       0       0       0       0       0       0       0       0
       0       0       0       0       0       0       0       0
       0       0       0       0       0       0       0       0
       0       0       0       0       0       0       0       0
       0       0       0       0       0       0       0       0
       0       0       0       0       0       0       0       0
       0       0       0       0       0       0       0       0
       0       0       0       0       0       0       0       0
       0       0       0       0       0       0       0       0
       0       0       0       0       0       0       0       0
       0       0       0       0       0       0       0       0
       0       0       0       0       0       0       0       0
       0       0       0       0       0       0       0       0
       0       0       0       0       0       0       0       0
       0       0       0       0       0       0       0       0
       0       0       0       0       0       0       0       0
       0       0       0       0       0       0       0       0
       0       0       0       0       0       0       0       0
       0       0       0       0       0       0       0       0
       0       0       0       0       0       0       0       0
       0       0       0       0       0       0       0       0
       0       0       0       0       0       0       0       0
       0       0       0       0       0       0       0       0
       0       0       0       0       0       0       0       0
       0       0       0       0       0       0       0       0
       0       0       0       0       0       0       0       0
       0       0       0       0       0       0       0       0
       0       0       0       0       0       0       0       0
       0       0       0       0       0       0       0       0
       0       0       0       0       0       0       0       0
       0       0       0       0       0       0       0       0
       0       0       0       0       0       0       0       0
       0       0       0       0       0       0       0       0
       0       0       0       0       0       0       0       0
       0       0       0       0       0       0       0       0
       0       0       0       0       0       0       0       0
       0       0       0       0       0       0       0       0
       0       0       0       0       0       0       0       0
       0       0       0       0       0       0       0       0
       0       0       0       0       0       0       0       0
       0       0       0       0       0       0       0       0
       0       0       0       0       0       0       0       0
       0       0       0       0       0       0       0       0
       0       0       0       0       0       0       0       0
       0       0       0       0       0       0       0       0
       0       0       0       0       0       0       0       0
       0       0       0       0       0       0       0       0
       0       0       0       0       0       0       0       0
       0       0       0       0       0       0       0       0
       0       0       0       0       0       0       0       0
       0       0       0       0       0       0       0       0
       0       0       0       0       0       0       0       0
       0       0       0       0       0       0       0       0
       0       0       0       0       0       0       0       0
       0       0       0       0       0       0       0       0
       0       0       0       0       0       0       0       0
       0       0       0       0       0       0       0       0
       0       0       0       0       0       0       0       0
       0       0       0       0       0       0       0       0
       0       0       0       0       0       0       0       0
       0       0       0       0       0       0       0       0
       0       0       0       0       0       0       0       0
       0       0       0       0       0       0       0       0
       0       0       0       0       0       0       0       0
       0       0       0       0       0       0       0       0
       0       0       0       0       0       0       0       0
       0       0       0       0       0       0       0       0
       0       0       0       0       0       0       0       0
       0       0       0       0       0       0       0       0
       0       0       0       0       0       0       0       0
       0       0       0       0       0       0       0       0
       0       0       0       0       0       0       0       0
       0       0       0       0       0       0       0       0
       0       0       0       0       0       0       0       0
       0       0       0       0       0       0       0       0
       0       0       0       0       0       0       0       0
       0       0       0       0       0       0       0       0
       0       0       0       0       0       0       0       0
       0       0       0       0       0       0       0       0
       0       0       0       0       0       0       0       0
       0       0       0       0       0       0       0       0
       0       0       0       0       0       0       0       0
       0       0       0       0       0       0       0       0
       0       0       0       0       0       0       0       0
       0       0       0       0       0       0       0       0
       0       0       0       0       0       0       0       0
       0       0       0       0       0       0       0       0
       0       0       0       0       0       0       0       0
       0       0       0       0       0       0       0       0
       0       0       0       0       0       0       0       0
       0       0       0       0       0       0       0       0
       0       0       0       0       0       0       0       0
       0       0       0       0       0       0       0       0
       0       0       0       0       0       0       0       0
       0       0       0       0       0       0       0       0
       0       0       0       0       0       0       0       0
       0       0       0       0       0       0       0       0
       0       0       0       0       0       0       0       0
       0       0       0       0       0       0       0       0
       0       0       0       0       0       0       0       0
       0       0       0       0       0       0       0       0
       0       0       0       0       0       0       0       0
       0       0       0       0       0       0       0       0
       0       0       0       0       0       0       0       0
       0       0       0       0       0       0       0       0
       0       0       0       0       0       0       0       0
       0       0       0       0       0       0       0       0
       0       0       0       0       0       0       0       0
       0       0       0       0       0       0       0       0
       0       0       0       0       0       0       0       0
       0       0       0       0       0       0       0       0
       0       0       0       0       0       0       0       0
       0       0       0       0       0       0       0       0
       0       0       0       0       0       0       0       0
       0       0       0       0       0       0       0       0
       0       0       0       0       0       0       0       0
       0       0       0       0       0       0       0       0
       0       0       0       0       0       0       0       0
       0       0       0       0       0       0       0       0
       0       0       0       0       0       0       0       0
       0       0       0       0       0       0       0       0
       0       0       0       0       0       0       0       0
       0       0       0       0       0       0       0       0
       0       0       0       0       0       0       0       0
       0       0       0       0       0       0       0       0
       0       0       0       0       0       0       0       0
       0       0       0       0       0       0       0       0
       0       0       0       0       0       0       0       0
       0       0       0       0       0       0       0       0
       0       0       0       0       0       0       0       0
       0       0       0       0       0       0       0       0
       0       0       0       0       0       0       0       0
       0       0       0       0       0       0       0       0
       0       0       0       0       0       0       0       0
       0       0       0       0       0       0       0       0
       0       0       0       0       0       0       0       0
       0       0       0       0       0       0       0       0
       0       0       0       0       0       0       0       0
       0       0       0       0       0       0       0       0
       0       0       0       0       0       0       0       0
       0       0       0       0       0       0       0       0
       0       0       0       0       0       0       0       0
       0       0       0       0       0       0       0       0
       0       0       0       0       0       0       0       0
       0       0       0       0       0       0       0       0
       0       0       0       0       0       0       0       0
       0       0       0       0       0       0       0       0
       0       0       0       0       0       0       0       0
       0       0       0       0       0       0       0       0
       0       0       0       0       0       0       0       0
       0       0       0       0       0       0       0       0
       0       0       0       0       0       0       0       0
       0       0       0       0       0       0       0       0
       0       0       0       0       0       0       0       0
       0       0       0       0       0       0       0       0
       0       0       0       0       0       0       0       0
       0       0       0       0       0       0       0       0
       0       0       0       0       0       0       0       0
       0       0       0       0       0       0       0       0
       0       0       0       0       0       0       0       0
       0       0       0       0       0       0       0       0
       0       0       0       0       0       0       0       0
       0       0       0       0       0       0       0       0
       0       0       0       0       0       0       0       0
       0       0       0       0       0       0       0       0
       0       0       0       0       0       0       0       0
       0       0       0       0       0       0       0       0
       0       0       0       0       0       0       0       0
       0       0       0       0       0       0       0       0
       0       0       0       0       0       0       0       0
       0       0       0       0       0       0       0       0
       0       0       0       0       0       0       0       0
       0       0       0       0       0       0       0       0
       0       0       0       0       0       0       0       0
       0       0       0       0       0       0       0       0
       0       0       0       0       0       0       0       0
       0       0       0       0       0       0       0       0
       0       0       0       0       0       0       0       0
       0       0       0       0       0       0       0       0
       0       0       0       0       0       0       0       0
       0       0       0       0       0       0       0       0
       0       0       0       0       0       0       0       0
       0       0       0       0       0       0       0       0
       0       0       0       0       0       0       0       0
       0       0       0       0       0       0       0       0
       0       0       0       0       0       0       0       0
       0       0       0       0       0       0       0       0
       0       0       0       0       0       0       0       0
       0       0       0       0       0       0       0       0
       0       0       0       0       0       0       0       0
       0       0       0       0       0       0       0       0
       0       0       0       0       0       0       0       0
       0       0       0       0       0       0       0       0
       0       0       0       0       0       0       0       0
       0       0       0       0       0       0       0       0
       0       0       0       0       0       0       0       0
       0       0       0       0       0       0       0       0
       0       0       0       0       0       0       0       0
       0       0       0       0       0       0       0       0
       0       0       0       0       0       0       0       0
       0       0       0       0       0       0       0       0
       0       0       0       0       0       0       0       0
       0       0       0       0       0       0       0       0
       0       0       0       0       0       0       0       0
       0       0       0       0       0       0       0       0
       0       0       0       0       0       0       0       0
       0       0       0       0       0       0       0       0
       0       0       0       0       0       0       0       0
       0       0       0       0       0       0       0       0
       0       0       0       0       0       0       0       0
       0       0       0       0       0       0       0       0
       0       0       0       0       0       0       0       0
       0       0       0       0       0       0       0       0
       0       0       0       0       0       0       0       0
       0       0       0       0       0       0       0       0
       0       0       0       0       0       0       0       0
       0       0       0       0       0       0       0       0
       0       0       0       0       0       0       0       0
       0       0       0       0       0       0       0       0
       0       0       0       0       0       0       0       0
       0       0       0       0       0       0       0       0
       0       0       0       0       0       0       0       0
       0       0       0       0       0       0       0       0
       0       0       0       0       0       0       0       0
       0       0       0       0       0       0       0       0
       0       0       0       0       0       0       0       0
       0       0       0       0       0       0       0       0
       0       0       0       0       0       0       0       0
       0       0       0       0       0       0       0       0
       0       0       0       0       0       0       0       0
       0       0       0       0       0       0       0       0
       0       0       0       0       0       0       0       0
       0       0       0       0       0       0       0       0
       0       0       0       0       0       0       0       0
       0       0       0       0       0       0       0       0
       0       0       0       0       0       0       0       0
       0       0       0       0       0       0       0       0
       0       0       0       0       0       0       0       0
       0       0       0       0       0       0       0       0
       0       0       0       0       0       0       0       0
       0       0       0       0       0       0       0       0
       0       0       0       0       0       0       0       0
       0       0       0       0       0       0       0       0
       0       0       0       0       0       0       0       0
       0       0       0       0       0       0       0       0
       0       0       0       0       0       0       0       0
       0       0       0       0       0       0       0       0
       0       0       0       0       0       0       0       0
       0       0       0       0       0       0       0       0
       0       0       0       0       0       0       0       0
       0       0       0       0       0       0       0       0
       0       0       0       0       0       0       0       0
       0       0       0       0       0       0       0       0
       0       0       0       0       0       0       0       0
       0       0       0       0       0       0       0       0
       0       0       0       0       0       0       0       0
       0       0       0       0       0       0       0       0
       0       0       0       0       0       0       0       0
       0       0       0       0       0       0       0       0
       0       0       0       0       0       0       0       0
       0       0       0       0       0       0       0       0
       0       0       0       0       0       0       0       0
       0       0       0       0       0       0       0       0
       0       0       0       0       0       0       0       0
       0       0       0       0       0       0       0       0
       0       0       0       0       0       0       0       0
       0       0       0       0       0       0       0       0
       0       0       0       0       0       0       0       0
       0       0       0       0       0       0       0       0
       0       0       0       0       0       0       0       0
       0       0       0       0       0       0       0       0
       0       0       0       0       0       0       0       0
       0       0       0       0       0       0       0       0
       0       0       0       0       0       0       0       0
       0       0       0       0       0       0       0       0
       0       0       0       0       0       0       0       0
       0       0       0       0       0       0       0       0
       0       0       0

       1       0 !NGRP
       0       0       0

